 vasp.5.4.1 24Jun15 (build Jan 02 2020 16:21:29) gamma-only                     
  
 executed on           IFC15_impi date 2020.04.18  07:34:01
 running on   32 total cores
 distrk:  each k-point on   32 cores,    1 groups
 distr:  one band on NCORES_PER_BAND=   8 cores,    4 groups


--------------------------------------------------------------------------------------------------------


 INCAR:
 POTCAR:    PAW_PBE C_h_GW 23May2013              
 POTCAR:    PAW_PBE O_h_GW 22May2013              
 POTCAR:    PAW_PBE H_h_GW 21Apr2008              
 POTCAR:    PAW_PBE C_h_GW 23May2013              
   VRHFIN =C: s2p2                                                              
   LEXCH  = PE                                                                  
   EATOM  =   147.1560 eV,   10.8157 Ry                                         
                                                                                
   TITEL  = PAW_PBE C_h_GW 23May2013                                            
   LULTRA =        F    use ultrasoft PP ?                                      
   IUNSCR =        1    unscreen: 0-lin 1-nonlin 2-no                           
   RPACOR =    0.800    partial core radius                                     
   POMASS =   12.011; ZVAL   =    4.000    mass and valenz                      
   RCORE  =    1.100    outmost cutoff radius                                   
   RWIGS  =    1.200; RWIGS  =    0.635    wigner-seitz radius (au A)           
   ENMAX  =  741.689; ENMIN  =  556.267 eV                                      
   RCLOC  =    0.804    cutoff for local pot                                    
   LCOR   =        T    correct aug charges                                     
   LPAW   =        T    paw PP                                                  
   EAUG   = 1782.225                                                            
   DEXC   =    0.000                                                            
   RMAX   =    1.128    core radius for proj-oper                               
   RAUG   =    1.300    factor for augmentation sphere                          
   RDEP   =    1.162    radius for radial grids                                 
   RDEPT  =    1.000    core radius for aug-charge                              
                                                                                
   Atomic configuration                                                         
    5 entries                                                                   
     n  l   j            E        occ.                                          
     1  0  0.50      -273.3789   2.0000                                         
     2  0  0.50       -13.7508   2.0000                                         
     2  1  0.50        -5.2854   2.0000                                         
     3  2  1.50        -5.4423   0.0000                                         
     4  3  2.50        -5.4423   0.0000                                         
   Description                                                                  
     l       E           TYP  RCUT    TYP  RCUT                                 
     0    -13.7508457     23  1.000                                             
     0     81.6349560     23  1.000                                             
     0    204.0873900     23  1.000                                             
     1     -5.2854382     23  1.100                                             
     1    204.0873900     23  1.100                                             
     1    380.9631280     23  1.100                                             
     2     81.6349560     23  1.100                                             
     2    204.0873900     23  1.100                                             
  local pseudopotential read in
  partial core-charges read in
  partial kinetic energy density read in
  kinetic energy density of atom read in
  atomic valenz-charges read in
  non local Contribution for L=           0  read in
    real space projection operators read in
  non local Contribution for L=           0  read in
    real space projection operators read in
  non local Contribution for L=           0  read in
    real space projection operators read in
  non local Contribution for L=           1  read in
    real space projection operators read in
  non local Contribution for L=           1  read in
    real space projection operators read in
  non local Contribution for L=           1  read in
    real space projection operators read in
  non local Contribution for L=           2  read in
    real space projection operators read in
  non local Contribution for L=           2  read in
    real space projection operators read in
    PAW grid and wavefunctions read in
 
   number of l-projection  operators is LMAX  =           8
   number of lm-projection operators is LMMAX =          22
 
 POTCAR:    PAW_PBE O_h_GW 22May2013              
   VRHFIN =O: s2p4                                                              
   LEXCH  = PE                                                                  
   EATOM  =   432.3788 eV,   31.7789 Ry                                         
                                                                                
   TITEL  = PAW_PBE O_h_GW 22May2013                                            
   LULTRA =        F    use ultrasoft PP ?                                      
   IUNSCR =        1    unscreen: 0-lin 1-nonlin 2-no                           
   RPACOR =    0.800    partial core radius                                     
   POMASS =   16.000; ZVAL   =    6.000    mass and valenz                      
   RCORE  =    1.100    outmost cutoff radius                                   
   RWIGS  =    1.200; RWIGS  =    0.635    wigner-seitz radius (au A)           
   ENMAX  =  765.519; ENMIN  =  574.139 eV                                      
   RCLOC  =    0.907    cutoff for local pot                                    
   LCOR   =        T    correct aug charges                                     
   LPAW   =        T    paw PP                                                  
   EAUG   = 1673.112                                                            
   DEXC   =    0.000                                                            
   RMAX   =    1.128    core radius for proj-oper                               
   RAUG   =    1.300    factor for augmentation sphere                          
   RDEP   =    1.125    radius for radial grids                                 
   RDEPT  =    1.000    core radius for aug-charge                              
                                                                                
   Atomic configuration                                                         
    5 entries                                                                   
     n  l   j            E        occ.                                          
     1  0  0.50      -514.6923   2.0000                                         
     2  0  0.50       -23.9615   2.0000                                         
     2  1  0.50        -9.0305   4.0000                                         
     3  2  1.50        -9.5241   0.0000                                         
     4  3  2.50        -9.5241   0.0000                                         
   Description                                                                  
     l       E           TYP  RCUT    TYP  RCUT                                 
     0    -23.9615316     23  1.000                                             
     0     40.8174780     23  1.000                                             
     0    544.2330400     23  1.000                                             
     1     -9.0304908     23  1.100                                             
     1    163.2699120     23  1.100                                             
     1    435.3864320     23  1.100                                             
     2     81.6349560     23  1.100                                             
     2    163.2699120     23  1.100                                             
  local pseudopotential read in
  partial core-charges read in
  partial kinetic energy density read in
  kinetic energy density of atom read in
  atomic valenz-charges read in
  non local Contribution for L=           0  read in
    real space projection operators read in
  non local Contribution for L=           0  read in
    real space projection operators read in
  non local Contribution for L=           0  read in
    real space projection operators read in
  non local Contribution for L=           1  read in
    real space projection operators read in
  non local Contribution for L=           1  read in
    real space projection operators read in
  non local Contribution for L=           1  read in
    real space projection operators read in
  non local Contribution for L=           2  read in
    real space projection operators read in
  non local Contribution for L=           2  read in
    real space projection operators read in
    PAW grid and wavefunctions read in
 
   number of l-projection  operators is LMAX  =           8
   number of lm-projection operators is LMMAX =          22
 
 POTCAR:    PAW_PBE H_h_GW 21Apr2008              
   VRHFIN =H: ultrasoft test                                                    
   LEXCH  = PE                                                                  
   EATOM  =    12.4884 eV,    0.9179 Ry                                         
                                                                                
   TITEL  = PAW_PBE H_h_GW 21Apr2008                                            
   LULTRA =        F    use ultrasoft PP ?                                      
   IUNSCR =        0    unscreen: 0-lin 1-nonlin 2-no                           
   RPACOR =    0.000    partial core radius                                     
   POMASS =    1.000; ZVAL   =    1.000    mass and valenz                      
   RCORE  =    0.800    outmost cutoff radius                                   
   RWIGS  =    1.100; RWIGS  =    0.582    wigner-seitz radius (au A)           
   ENMAX  =  700.000; ENMIN  =  350.000 eV                                      
   RCLOC  =    0.701    cutoff for local pot                                    
   LCOR   =        T    correct aug charges                                     
   LPAW   =        T    paw PP                                                  
   EAUG   = 1000.000                                                            
   RMAX   =    0.819    core radius for proj-oper                               
   RAUG   =    1.000    factor for augmentation sphere                          
   RDEP   =    0.817    radius for radial grids                                 
   RDEPT  =    1.000    core radius for aug-charge                              
                                                                                
   Atomic configuration                                                         
    3 entries                                                                   
     n  l   j            E        occ.                                          
     1  0  0.50        -6.4927   1.0000                                         
     2  1  0.50        -3.4015   0.0000                                         
     3  2  1.50        13.6058   0.0000                                         
   Description                                                                  
     l       E           TYP  RCUT    TYP  RCUT                                 
     0     -6.4927495     23  0.800                                             
     0      6.8029130     23  0.800                                             
     1     -4.0817478     23  0.800                                             
     1    108.8466080     23  0.800                                             
     2     81.6349560     23  0.800                                             
  local pseudopotential read in
  kinetic energy density of atom read in
  atomic valenz-charges read in
  non local Contribution for L=           0  read in
    real space projection operators read in
  non local Contribution for L=           0  read in
    real space projection operators read in
  non local Contribution for L=           1  read in
    real space projection operators read in
  non local Contribution for L=           1  read in
    real space projection operators read in
  non local Contribution for L=           2  read in
    real space projection operators read in
    PAW grid and wavefunctions read in
 
   number of l-projection  operators is LMAX  =           5
   number of lm-projection operators is LMMAX =          13
 
  PAW_PBE C_h_GW 23May2013              :
 energy of atom  1       EATOM= -147.1560
 kinetic energy error for atom=    0.0004 (will be added to EATOM!!)
  PAW_PBE O_h_GW 22May2013              :
 energy of atom  2       EATOM= -432.3788
 kinetic energy error for atom=    0.0017 (will be added to EATOM!!)
  PAW_PBE H_h_GW 21Apr2008              :
 energy of atom  3       EATOM=  -12.4884
 kinetic energy error for atom=    0.0001 (will be added to EATOM!!)
 
 
 POSCAR: C O H                                   
  positions in cartesian coordinates
  No initial velocities read in
 exchange correlation table for  LEXCH =        8
   RHO(1)=    0.500       N(1)  =     2000
   RHO(2)=  100.500       N(2)  =     4000
 


--------------------------------------------------------------------------------------------------------


 ion  position               nearest neighbor table
   1  0.968  0.038  0.008-   3 1.22   4 1.32   2 1.50
   2  0.925  0.037  0.008-   6 1.08   8 1.09   7 1.09   1 1.50
   3  0.987  0.067  0.013-   1 1.22
   4  0.983  0.004  0.001-   5 0.99   1 1.32
   5  0.012  0.006  0.002-   4 0.99
   6  0.914  0.065  0.013-   2 1.08
   7  0.915  0.026  0.981-   2 1.09
   8  0.916  0.017  0.030-   2 1.09
 
  LATTYP: Found a simple cubic cell.
 ALAT       =    35.0000000000
  
  Lattice vectors:
  
 A1 = (  35.0000000000,   0.0000000000,   0.0000000000)
 A2 = (   0.0000000000,  35.0000000000,   0.0000000000)
 A3 = (   0.0000000000,   0.0000000000,  35.0000000000)


Analysis of symmetry for initial positions (statically):
=====================================================================
 Subroutine PRICEL returns:
 Original cell was already a primitive cell.
 

 Routine SETGRP: Setting up the symmetry group for a 
 simple cubic supercell.


 Subroutine GETGRP returns: Found  1 space group operations
 (whereof  1 operations were pure point group operations)
 out of a pool of 48 trial point group operations.


The static configuration has the point symmetry C_1 .


Analysis of symmetry for dynamics (positions and initial velocities):
=====================================================================
 Subroutine PRICEL returns:
 Original cell was already a primitive cell.
 

 Routine SETGRP: Setting up the symmetry group for a 
 simple cubic supercell.


 Subroutine GETGRP returns: Found  1 space group operations
 (whereof  1 operations were pure point group operations)
 out of a pool of 48 trial point group operations.


The dynamic configuration has the point symmetry C_1 .
 
 
 KPOINTS: automatic mesh                          

Automatic generation of k-mesh.
Space group operators:
 irot       det(A)        alpha          n_x          n_y          n_z        tau_x        tau_y        tau_z
    1     1.000000     0.000000     1.000000     0.000000     0.000000     0.000000     0.000000     0.000000
 
 Subroutine IBZKPT returns following result:
 ===========================================
 
 Found      1 irreducible k-points:
 
 Following reciprocal coordinates:
            Coordinates               Weight
  0.000000  0.000000  0.000000      1.000000
 
 Following cartesian coordinates:
            Coordinates               Weight
  0.000000  0.000000  0.000000      1.000000
 
 
 Subroutine IBZKPT_HF returns following result:
 ==============================================
 
 Found      1 k-points in 1st BZ
 the following      1 k-points will be used (e.g. in the exchange kernel)
 Following reciprocal coordinates:   # in IRBZ
  0.000000  0.000000  0.000000    1.00000000   1 t-inv F


--------------------------------------------------------------------------------------------------------




 Dimension of arrays:
   k-points           NKPTS =      1   k-points in BZ     NKDIM =      1   number of bands    NBANDS=     20
   number of dos      NEDOS =    301   number of ions     NIONS =      8
   non local maximal  LDIM  =      8   non local SUM 2l+1 LMDIM =     22
   total plane-waves  NPLWV = ******
   max r-space proj   IRMAX =      1   max aug-charges    IRDMAX=  19040
   dimension x,y,z NGX =   512 NGY =  512 NGZ =  512
   dimension x,y,z NGXF=  1024 NGYF= 1024 NGZF= 1024
   support grid    NGXF=  1024 NGYF= 1024 NGZF= 1024
   ions per type =               2   2   4
 NGX,Y,Z   is equivalent  to a cutoff of  24.32, 24.32, 24.32 a.u.
 NGXF,Y,Z  is equivalent  to a cutoff of  48.64, 48.64, 48.64 a.u.


 I would recommend the setting:
   dimension x,y,z NGX =   511 NGY =  511 NGZ =  511
 SYSTEM =  C                                       
 POSCAR =  C O H                                   

 Startparameter for this run:
   NWRITE =      2    write-flag & timer
   PREC   = accura    normal or accurate (medium, high low for compatibility)
   ISTART =      0    job   : 0-new  1-cont  2-samecut
   ICHARG =      2    charge: 1-file 2-atom 10-const
   ISPIN  =      1    spin polarized calculation?
   LNONCOLLINEAR =      F non collinear calculations
   LSORBIT =      F    spin-orbit coupling
   INIWAV =      1    electr: 0-lowe 1-rand  2-diag
   LASPH  =      T    aspherical Exc in radial PAW
   METAGGA=      F    non-selfconsistent MetaGGA calc.

 Electronic Relaxation 1
   ENCUT  = 2000.0 eV 147.00 Ry   12.12 a.u. 127.63127.63127.63*2*pi/ulx,y,z
   ENINI  = 2000.0     initial cutoff
   ENAUG  = 1782.2 eV  augmentation charge cutoff
   NELM   =     60;   NELMIN=  2; NELMDL= -5     # of ELM steps 
   EDIFF  = 0.1E-06   stopping-criterion for ELM
   LREAL  =      F    real-space projection
   NLSPLINE    = F    spline interpolate recip. space projectors
   LCOMPAT=      F    compatible to vasp.4.4
   GGA_COMPAT  = T    GGA compatible to vasp.4.4-vasp.4.6
   LMAXPAW     = -100 max onsite density
   LMAXMIX     =    2 max onsite mixed and CHGCAR
   VOSKOWN=      0    Vosko Wilk Nusair interpolation
   ROPT   =    0.00000   0.00000   0.00000
 Ionic relaxation
   EDIFFG = 0.1E-05   stopping-criterion for IOM
   NSW    =      0    number of steps for IOM
   NBLOCK =      1;   KBLOCK =      1    inner block; outer block 
   IBRION =     -1    ionic relax: 0-MD 1-quasi-New 2-CG
   NFREE  =      0    steps in history (QN), initial steepest desc. (CG)
   ISIF   =      0    stress and relaxation
   IWAVPR =     10    prediction:  0-non 1-charg 2-wave 3-comb
   ISYM   =      3    0-nonsym 1-usesym 2-fastsym
   LCORR  =      T    Harris-Foulkes like correction to forces

   POTIM  = 0.5000    time-step for ionic-motion
   TEIN   =    0.0    initial temperature
   TEBEG  =    0.0;   TEEND  =   0.0 temperature during run
   SMASS  =  -3.00    Nose mass-parameter (am)
   estimated Nose-frequenzy (Omega)   =  0.10E-29 period in steps =****** mass=  -0.280E-25a.u.
   SCALEE = 1.0000    scale energy and forces
   NPACO  =    256;   APACO  = 16.0  distance and # of slots for P.C.
   PSTRESS=    0.0 pullay stress

  Mass of Ions in am
   POMASS =  12.01 16.00  1.00
  Ionic Valenz
   ZVAL   =   4.00  6.00  1.00
  Atomic Wigner-Seitz radii
   RWIGS  =  -1.00 -1.00 -1.00
  virtual crystal weights 
   VCA    =   1.00  1.00  1.00
   NELECT =      24.0000    total number of electrons
   NUPDOWN=      -1.0000    fix difference up-down

 DOS related values:
   EMIN   =  10.00;   EMAX   =-10.00  energy-range for DOS
   EFERMI =   0.00
   ISMEAR =     0;   SIGMA  =   0.01  broadening in eV -4-tet -1-fermi 0-gaus

 Electronic relaxation 2 (details)
   IALGO  =     58    algorithm
   LDIAG  =      T    sub-space diagonalisation (order eigenvalues)
   LSUBROT=      F    optimize rotation matrix (better conditioning)
   TURBO    =      0    0=normal 1=particle mesh
   IRESTART =      0    0=no restart 2=restart with 2 vectors
   NREBOOT  =      0    no. of reboots
   NMIN     =      0    reboot dimension
   EREF     =   0.00    reference energy to select bands
   IMIX   =      4    mixing-type and parameters
     AMIX     =   0.40;   BMIX     =  1.00
     AMIX_MAG =   1.60;   BMIX_MAG =  1.00
     AMIN     =   0.10
     WC   =   100.;   INIMIX=   1;  MIXPRE=   1;  MAXMIX= -45

 Intra band minimization:
   WEIMIN = 0.0000     energy-eigenvalue tresh-hold
   EBREAK =  0.13E-08  absolut break condition
   DEPER  =   0.30     relativ break condition  

   TIME   =   0.40     timestep for ELM

  volume/ion in A,a.u.               =    5359.38     36166.85
  Fermi-wavevector in a.u.,A,eV,Ry     =   0.134920  0.254962  0.247673  0.018203
  Thomas-Fermi vector in A             =   0.783236
 
 Write flags
   LWAVE  =      F    write WAVECAR
   LCHARG =      T    write CHGCAR
   LVTOT  =      F    write LOCPOT, total local potential
   LVHAR  =      F    write LOCPOT, Hartree potential only
   LELF   =      F    write electronic localiz. function (ELF)
   LORBIT =      0    0 simple, 1 ext, 2 COOP (PROOUT)


 Dipole corrections
   LMONO  =      F    monopole corrections only (constant potential shift)
   LDIPOL =      F    correct potential (dipole corrections)
   IDIPOL =      0    1-x, 2-y, 3-z, 4-all directions 
   EPSILON=  1.0000000 bulk dielectric constant

 Exchange correlation treatment:
   GGA     =    --    GGA type
   LEXCH   =     8    internal setting for exchange type
   VOSKOWN=      0    Vosko Wilk Nusair interpolation
   EXXOEP  =     0    0=HF, 1=EXX-LHF (local Hartree Fock) 2=EXX OEP
   LHFCALC =     T    Hartree Fock is set to
   LSYMGRAD=     F    symmetrize gradient (conserves proper symmetry)
   PRECFOCK=normal    Normal, Fast or Accurate (Low or Medium for compatibility)
   LRHFCALC=     F    long range Hartree Fock
   LRSCOR  =     F    long range correlation only (use DFT for short range part)
   LTHOMAS =     F    Thomas Fermi screening in HF
   LMODELHF=     F    short range full HF, long range fraction AEXX
   ENCUT4O =  -1.0   cutoff for four orbital integrals eV
   LMAXFOCK=     4    L truncation for augmentation on plane wave grid
   LMAXFOCKAE=  -1    L truncation for all-electron charge restoration on plane wave grid
   NMAXFOCKAE=   1    number of basis functions for all-electron charge restoration
   LFOCKAEDFT=     F  apply the AE augmentation even for DFT
   NKREDX  =     1    reduce k-point grid by
   NKREDY  =     1    reduce k-point grid by
   NKREDZ  =     1    reduce k-point grid by
   SHIFTRED=     F    shift reduced grid of Gamma
   HFKIDENT=     F    idential grid for each k-point
   ODDONLY =     F    use only odd q-grid points
   EVENONLY=     F    use only even q-grid points
   HFALPHA =   -1.0000 decay constant for conv. correction
   MCALPHA =    0.0000 extent of test-charge in conv. correction in multipole expansion
   AEXX    =    1.0000 exact exchange contribution
   HFSCREEN=    0.0000 screening length (either q_TF or 0.3 A-1)
   HFSCREENC=   0.0000 screening length for correlation (either q_TF or 0.3 A-1)
   HFRCUT  =    0.0000 spherical cutoff for potential kernel
   ALDAX   =    0.0000 LDA exchange part
   AGGAX   =    0.0000 GGA exchange part
   ALDAC   =    0.0000 LDA correlation
   AGGAC   =    0.0000 GGA correlation
   NBANDSGWLOW=     1    first orbital included in HF term
   ENCUTFOCK=  -1.0 apply spherical cutoff to Coloumb kernel
 Linear response parameters
   LEPSILON=     F    determine dielectric tensor
   LRPA    =     F    only Hartree local field effects (RPA)
   LNABLA  =     F    use nabla operator in PAW spheres
   LVEL    =     F    velocity operator in full k-point grid
   LINTERFAST=   F  fast interpolation
   KINTER  =     0    interpolate to denser k-point grid
   CSHIFT  =0.1000    complex shift for real part using Kramers Kronig
   OMEGAMAX=  -1.0    maximum frequency
   DEG_THRESHOLD= 0.2000000E-02 threshold for treating states as degnerate
   RTIME   =    0.100 relaxation time in fs

 Orbital magnetization related:
   ORBITALMAG=     F  switch on orbital magnetization
   LCHIMAG   =     F  perturbation theory with respect to B field
   DQ        =  0.001000  dq finite difference perturbation B field



--------------------------------------------------------------------------------------------------------


 Static calculation
 charge density and potential will be updated during run
 non-spin polarized calculation
 Conjugate gradient for all bands (Freysoldt, et al. PRB 79, 241103 (2009))
 preconditioned conjugated gradient                                        
 perform sub-space diagonalisation
    before iterative eigenvector-optimisation
 modified Broyden-mixing scheme, WC =      100.0
 initial mixing is a Kerker type mixing with AMIX =  0.4000 and BMIX =      1.0000
 Hartree-type preconditioning will be used
 using additional bands            8
 reciprocal scheme for non local part
 use partial core corrections
 no Harris-corrections to forces 
 use gradient corrections 
 use of overlap-Matrix (Vanderbilt PP)
 Gauss-broadening in eV      SIGMA  =   0.01


--------------------------------------------------------------------------------------------------------


  energy-cutoff  :     2000.00
  volume of cell :    42875.00
      direct lattice vectors                 reciprocal lattice vectors
    35.000000000  0.000000000  0.000000000     0.028571429  0.000000000  0.000000000
     0.000000000 35.000000000  0.000000000     0.000000000  0.028571429  0.000000000
     0.000000000  0.000000000 35.000000000     0.000000000  0.000000000  0.028571429

  length of vectors
    35.000000000 35.000000000 35.000000000     0.028571429  0.028571429  0.028571429


 
 k-points in units of 2pi/SCALE and weight: automatic mesh                          
   0.00000000  0.00000000  0.00000000       1.000
 
 k-points in reciprocal lattice and weights: automatic mesh                          
   0.00000000  0.00000000  0.00000000       1.000
 
 position of ions in fractional coordinates (direct lattice) 
   0.96818211  0.03791486  0.00786192
   0.92538787  0.03674827  0.00792461
   0.98665478  0.06712537  0.01318678
   0.98348316  0.00391201  0.00141764
   0.01180915  0.00580733  0.00158535
   0.91409575  0.06505387  0.01330828
   0.91530696  0.02615025  0.98051425
   0.91562531  0.01690852  0.02974973
 
 position of ions in cartesian coordinates  (Angst):
  33.88637388  1.32702010  0.27516705
  32.38857531  1.28618957  0.27736131
  34.53291736  2.34938778  0.46153746
  34.42191061  0.13692049  0.04961747
   0.41332036  0.20325660  0.05548711
  31.99335128  2.27688545  0.46578983
  32.03574377  0.91525868 34.31799877
  32.04688579  0.59179821  1.04124041
 


--------------------------------------------------------------------------------------------------------


 use parallel FFT for wavefunctions z direction half grid
 k-point  1 :   0.0000 0.0000 0.0000  plane waves: 4353902

 maximum and minimum number of plane-waves per node :    544247   544233

 maximum number of plane-waves:   4353902
 maximum index in each direction: 
   IXMAX=  127   IYMAX=  127   IZMAX=  127
   IXMIN= -127   IYMIN= -127   IZMIN=    0

 NGX is ok and might be reduce to 510
 NGY is ok and might be reduce to 510
 NGZ is ok and might be reduce to 510

 parallel 3D FFT for wavefunctions:
    minimum data exchange during FFTs selected (reduces bandwidth)
 parallel 3D FFT for charge:
    minimum data exchange during FFTs selected (reduces bandwidth)


 FFT grid for exact exchange (Hartree Fock) 
  NGX =384; NGY =384; NGZ =384

 use parallel FFT for wavefunctions z direction half grid
 
 Radii for the augmentation spheres in the non-local exchange
 for species   1 augmentation radius   0.676 (default was   0.541)
       energy cutoff for augmentation   8000.0
 for species   2 augmentation radius   0.698 (default was   0.559)
       energy cutoff for augmentation   8000.0
 for species   3 augmentation radius   0.588 (default was   0.553)
       energy cutoff for augmentation   8000.0

 real space projection operators:
  total allocation   :       2277.34 KBytes
  max/ min on nodes  :        301.95        265.23

 Maximum index for augmentation-charges in exchange          261
  SETUP_FOCK is finished

 total amount of memory used by VASP on root node  5053355. kBytes
========================================================================

   base      :      30000. kBytes
   nonl-proj :     357018. kBytes
   fftplans  :    1713006. kBytes
   grid      :    2822242. kBytes
   one-center:         11. kBytes
   HF        :         96. kBytes
   nonlr-proj:        365. kBytes
   wavefun   :     130617. kBytes
 
     INWAV:  cpu time    0.0000: real time    0.0004
 Broyden mixing: mesh for mixing (old mesh)
   NGX =255   NGY =255   NGZ =255
  (NGX  =***   NGY  =***   NGZ  =***)
  gives a total of ****** points

 initial charge density was supplied:
 charge density of overlapping atoms calculated
 number of electron      24.0000000 magnetization 
 keeping initial charge density in first step


--------------------------------------------------------------------------------------------------------


 Maximum index for augmentation-charges          785 (set IRDMAX)


--------------------------------------------------------------------------------------------------------


 FEWALD executed in parallel
    FEWALD:  cpu time    0.0002: real time    0.0002


----------------------------------------- Iteration    1(   1)  ---------------------------------------


    POTLOK:  cpu time   17.9904: real time   18.0359
    SETDIJ:  cpu time    0.1418: real time    0.1421
    TRIAL :  cpu time   14.9715: real time   15.0125
    CORREC:  cpu time    0.0001: real time    0.0001
    --------------------------------------------
      LOOP:  cpu time   33.2206: real time   33.3100

 eigenvalue-minimisations  :    40
 total energy-change (2. order) : 0.2218834E+03  (-0.4495105E+03)
 number of electron      24.0000000 magnetization 
 augmentation part       24.0000000 magnetization 

 Free energy of the ion-electron system (eV)
  ---------------------------------------------------
  alpha Z        PSCENC =         0.04521825
  Ewald energy   TEWEN  =      1513.56575091
  -Hartree energ DENC   =     -2427.79531086
  -exchange      EXHF   =         0.00000000
  -V(xc)+E(xc)   XCENC  =         0.00000000
  PAW double counting   =       989.55793886     -990.62449337
  entropy T*S    EENTRO =        -0.00000001
  eigenvalues    EBANDS =        -0.13298897
  atomic energy  EATOM  =      1137.26729263
  ---------------------------------------------------
  free energy    TOTEN  =       221.88340744 eV

  energy without entropy =      221.88340745  energy(sigma->0) =      221.88340745
  exchange ACFDT corr.  =         0.00000000  see jH, gK, PRB 81, 115126


--------------------------------------------------------------------------------------------------------




----------------------------------------- Iteration    1(   2)  ---------------------------------------


    TRIAL :  cpu time   20.8252: real time   20.8835
    CORREC:  cpu time    0.0002: real time    0.0002
    --------------------------------------------
      LOOP:  cpu time   20.8401: real time   20.9008

 eigenvalue-minimisations  :    68
 total energy-change (2. order) :-0.4432496E+02  (-0.4392304E+02)
 number of electron      24.0000000 magnetization 
 augmentation part       24.0000000 magnetization 

 Free energy of the ion-electron system (eV)
  ---------------------------------------------------
  alpha Z        PSCENC =         0.04521825
  Ewald energy   TEWEN  =      1513.56575091
  -Hartree energ DENC   =     -2427.79531086
  -exchange      EXHF   =         0.00000000
  -V(xc)+E(xc)   XCENC  =         0.00000000
  PAW double counting   =       989.55793886     -990.62449337
  entropy T*S    EENTRO =        -0.00094629
  eigenvalues    EBANDS =       -44.45700054
  atomic energy  EATOM  =      1137.26729263
  ---------------------------------------------------
  free energy    TOTEN  =       177.55844960 eV

  energy without entropy =      177.55939588  energy(sigma->0) =      177.55892274
  exchange ACFDT corr.  =         0.00000000  see jH, gK, PRB 81, 115126


--------------------------------------------------------------------------------------------------------




----------------------------------------- Iteration    1(   3)  ---------------------------------------


    TRIAL :  cpu time   19.8244: real time   19.8806
    CORREC:  cpu time    0.0002: real time    0.0002
    --------------------------------------------
      LOOP:  cpu time   19.8286: real time   19.8878

 eigenvalue-minimisations  :    64
 total energy-change (2. order) :-0.1582460E+02  (-0.1537911E+02)
 number of electron      24.0000000 magnetization 
 augmentation part       24.0000000 magnetization 

 Free energy of the ion-electron system (eV)
  ---------------------------------------------------
  alpha Z        PSCENC =         0.04521825
  Ewald energy   TEWEN  =      1513.56575091
  -Hartree energ DENC   =     -2427.79531086
  -exchange      EXHF   =         0.00000000
  -V(xc)+E(xc)   XCENC  =         0.00000000
  PAW double counting   =       989.55793886     -990.62449337
  entropy T*S    EENTRO =        -0.01033755
  eigenvalues    EBANDS =       -60.27220757
  atomic energy  EATOM  =      1137.26729263
  ---------------------------------------------------
  free energy    TOTEN  =       161.73385130 eV

  energy without entropy =      161.74418885  energy(sigma->0) =      161.73902008
  exchange ACFDT corr.  =         0.00000000  see jH, gK, PRB 81, 115126


--------------------------------------------------------------------------------------------------------




----------------------------------------- Iteration    1(   4)  ---------------------------------------


    TRIAL :  cpu time   23.7227: real time   23.7902
    CORREC:  cpu time    0.0001: real time    0.0001
    --------------------------------------------
      LOOP:  cpu time   23.7286: real time   23.7988

 eigenvalue-minimisations  :    80
 total energy-change (2. order) :-0.9827664E+01  (-0.9354132E+01)
 number of electron      24.0000000 magnetization 
 augmentation part       24.0000000 magnetization 

 Free energy of the ion-electron system (eV)
  ---------------------------------------------------
  alpha Z        PSCENC =         0.04521825
  Ewald energy   TEWEN  =      1513.56575091
  -Hartree energ DENC   =     -2427.79531086
  -exchange      EXHF   =         0.00000000
  -V(xc)+E(xc)   XCENC  =         0.00000000
  PAW double counting   =       989.55793886     -990.62449337
  entropy T*S    EENTRO =        -0.00000000
  eigenvalues    EBANDS =       -70.11020951
  atomic energy  EATOM  =      1137.26729263
  ---------------------------------------------------
  free energy    TOTEN  =       151.90618692 eV

  energy without entropy =      151.90618692  energy(sigma->0) =      151.90618692
  exchange ACFDT corr.  =         0.00000000  see jH, gK, PRB 81, 115126


--------------------------------------------------------------------------------------------------------




----------------------------------------- Iteration    1(   5)  ---------------------------------------


    TRIAL :  cpu time   23.7252: real time   23.7919
    CORREC:  cpu time    0.0001: real time    0.0001
    CHARGE:  cpu time    3.0084: real time    3.0196
    --------------------------------------------
      LOOP:  cpu time   26.7396: real time   26.8204

 eigenvalue-minimisations  :    80
 total energy-change (2. order) :-0.4354608E+01  (-0.4344906E+01)
 number of electron      24.0000000 magnetization 
 augmentation part       -0.1568453 magnetization 

 Free energy of the ion-electron system (eV)
  ---------------------------------------------------
  alpha Z        PSCENC =         0.04521825
  Ewald energy   TEWEN  =      1513.56575091
  -Hartree energ DENC   =     -2427.79531086
  -exchange      EXHF   =         0.00000000
  -V(xc)+E(xc)   XCENC  =         0.00000000
  PAW double counting   =       989.55793886     -990.62449337
  entropy T*S    EENTRO =        -0.00000000
  eigenvalues    EBANDS =       -74.46481741
  atomic energy  EATOM  =      1137.26729263
  ---------------------------------------------------
  free energy    TOTEN  =       147.55157902 eV

  energy without entropy =      147.55157902  energy(sigma->0) =      147.55157902
  exchange ACFDT corr.  =         0.00000000  see jH, gK, PRB 81, 115126


--------------------------------------------------------------------------------------------------------




----------------------------------------- Iteration    1(   6)  ---------------------------------------


    POTLOK:  cpu time   20.5365: real time   20.5864
    SETDIJ:  cpu time    0.2963: real time    0.2970
    TRIAL :  cpu time   37.4451: real time   37.5966
    CORREC:  cpu time   62.1938: real time   62.4073
    CHARGE:  cpu time    2.9470: real time    2.9575
    --------------------------------------------
      LOOP:  cpu time  123.4195: real time  123.8485

 eigenvalue-minimisations  :     0
 total energy-change (2. order) : 0.6382810E+03  (-0.1424898E+03)
 number of electron      24.0000000 magnetization 
 augmentation part       -0.1656389 magnetization 

 Free energy of the ion-electron system (eV)
  ---------------------------------------------------
  alpha Z        PSCENC =         0.04521825
  Ewald energy   TEWEN  =      1513.56575091
  -Hartree energ DENC   =      -564.04054637
  -exchange      EXHF   =       112.68556675
  -V(xc)+E(xc)   XCENC  =         0.00000000
  PAW double counting   =      1231.00387526    -1231.18570677
  entropy T*S    EENTRO =        -0.00000000
  eigenvalues    EBANDS =     -1413.50889634
  atomic energy  EATOM  =      1137.26729263
  ---------------------------------------------------
  free energy    TOTEN  =       785.83255432 eV

  energy without entropy =      785.83255432  energy(sigma->0) =      785.83255432
  exchange ACFDT corr.  =        -0.00000000  see jH, gK, PRB 81, 115126


--------------------------------------------------------------------------------------------------------




----------------------------------------- Iteration    1(   7)  ---------------------------------------


    POTLOK:  cpu time   20.5346: real time   20.5844
    SETDIJ:  cpu time    0.2969: real time    0.2976
    TRIAL :  cpu time   44.2578: real time   44.4253
    CORREC:  cpu time   55.6755: real time   55.8741
    CHARGE:  cpu time    2.9580: real time    2.9683
    --------------------------------------------
      LOOP:  cpu time  123.7271: real time  124.1570

 eigenvalue-minimisations  :     0
 total energy-change (2. order) :-0.9330473E+02  (-0.1076635E+03)
 number of electron      24.0000000 magnetization 
 augmentation part       -0.1907390 magnetization 

 Free energy of the ion-electron system (eV)
  ---------------------------------------------------
  alpha Z        PSCENC =         0.04521825
  Ewald energy   TEWEN  =      1513.56575091
  -Hartree energ DENC   =      -643.71734879
  -exchange      EXHF   =       121.90451260
  -V(xc)+E(xc)   XCENC  =         0.00000000
  PAW double counting   =      3274.45457025    -3274.75247267
  entropy T*S    EENTRO =        -0.00000000
  eigenvalues    EBANDS =     -1436.23969906
  atomic energy  EATOM  =      1137.26729263
  ---------------------------------------------------
  free energy    TOTEN  =       692.52782411 eV

  energy without entropy =      692.52782412  energy(sigma->0) =      692.52782411
  exchange ACFDT corr.  =        -0.00000004  see jH, gK, PRB 81, 115126


--------------------------------------------------------------------------------------------------------




----------------------------------------- Iteration    1(   8)  ---------------------------------------


    POTLOK:  cpu time   20.6389: real time   20.6890
    SETDIJ:  cpu time    0.2945: real time    0.2952
    TRIAL :  cpu time   44.5617: real time   44.7322
    CORREC:  cpu time   55.3472: real time   55.5456
    CHARGE:  cpu time    2.6720: real time    2.6817
    --------------------------------------------
      LOOP:  cpu time  123.5185: real time  123.9508

 eigenvalue-minimisations  :     0
 total energy-change (2. order) :-0.9344978E+02  (-0.1495289E+03)
 number of electron      24.0000000 magnetization 
 augmentation part       -0.2395762 magnetization 

 Free energy of the ion-electron system (eV)
  ---------------------------------------------------
  alpha Z        PSCENC =         0.04521825
  Ewald energy   TEWEN  =      1513.56575091
  -Hartree energ DENC   =      -760.05479103
  -exchange      EXHF   =       129.40861673
  -V(xc)+E(xc)   XCENC  =         0.00000000
  PAW double counting   =      5243.22191359    -5243.62611292
  entropy T*S    EENTRO =        -0.00000000
  eigenvalues    EBANDS =     -1420.74984894
  atomic energy  EATOM  =      1137.26729263
  ---------------------------------------------------
  free energy    TOTEN  =       599.07803922 eV

  energy without entropy =      599.07803922  energy(sigma->0) =      599.07803922
  exchange ACFDT corr.  =        -0.00000005  see jH, gK, PRB 81, 115126


--------------------------------------------------------------------------------------------------------




----------------------------------------- Iteration    1(   9)  ---------------------------------------


    POTLOK:  cpu time   20.6231: real time   20.6731
    SETDIJ:  cpu time    0.2941: real time    0.2948
    TRIAL :  cpu time   37.9208: real time   38.0749
    CORREC:  cpu time   55.3690: real time   55.5663
    CHARGE:  cpu time    2.6768: real time    2.6869
    --------------------------------------------
      LOOP:  cpu time  116.8891: real time  117.3042

 eigenvalue-minimisations  :     0
 total energy-change (2. order) :-0.9008587E+02  (-0.2190710E+03)
 number of electron      24.0000000 magnetization 
 augmentation part       -0.2665010 magnetization 

 Free energy of the ion-electron system (eV)
  ---------------------------------------------------
  alpha Z        PSCENC =         0.04521825
  Ewald energy   TEWEN  =      1513.56575091
  -Hartree energ DENC   =      -923.17493648
  -exchange      EXHF   =       135.36875720
  -V(xc)+E(xc)   XCENC  =         0.00000000
  PAW double counting   =      3648.69709857    -3649.06823922
  entropy T*S    EENTRO =        -0.00000000
  eigenvalues    EBANDS =     -1353.70877488
  atomic energy  EATOM  =      1137.26729263
  ---------------------------------------------------
  free energy    TOTEN  =       508.99216698 eV

  energy without entropy =      508.99216698  energy(sigma->0) =      508.99216698
  exchange ACFDT corr.  =         0.00000000  see jH, gK, PRB 81, 115126


--------------------------------------------------------------------------------------------------------




----------------------------------------- Iteration    1(  10)  ---------------------------------------


    POTLOK:  cpu time   20.6316: real time   20.6817
    SETDIJ:  cpu time    0.2989: real time    0.2996
    TRIAL :  cpu time   38.0171: real time   38.1716
    CORREC:  cpu time   55.6397: real time   55.8375
    CHARGE:  cpu time    2.6648: real time    2.6747
    --------------------------------------------
      LOOP:  cpu time  117.2529: real time  117.6689

 eigenvalue-minimisations  :     0
 total energy-change (2. order) : 0.2086503E+02  (-0.1545524E+03)
 number of electron      24.0000000 magnetization 
 augmentation part       -0.2405789 magnetization 

 Free energy of the ion-electron system (eV)
  ---------------------------------------------------
  alpha Z        PSCENC =         0.04521825
  Ewald energy   TEWEN  =      1513.56575091
  -Hartree energ DENC   =      -891.92874048
  -exchange      EXHF   =       135.71718663
  -V(xc)+E(xc)   XCENC  =         0.00000000
  PAW double counting   =      2782.18438059    -2782.52759176
  entropy T*S    EENTRO =        -0.00000000
  eigenvalues    EBANDS =     -1364.46629509
  atomic energy  EATOM  =      1137.26729263
  ---------------------------------------------------
  free energy    TOTEN  =       529.85720168 eV

  energy without entropy =      529.85720168  energy(sigma->0) =      529.85720168
  exchange ACFDT corr.  =         0.00000000  see jH, gK, PRB 81, 115126


--------------------------------------------------------------------------------------------------------




----------------------------------------- Iteration    1(  11)  ---------------------------------------


    POTLOK:  cpu time   20.6475: real time   20.6976
    SETDIJ:  cpu time    0.2941: real time    0.2948
    TRIAL :  cpu time   37.8939: real time   38.0458
    CORREC:  cpu time   57.3027: real time   57.5040
    CHARGE:  cpu time    2.6284: real time    2.6382
    --------------------------------------------
      LOOP:  cpu time  118.7706: real time  119.1872

 eigenvalue-minimisations  :     0
 total energy-change (2. order) :-0.1515274E+03  (-0.1424245E+03)
 number of electron      24.0000000 magnetization 
 augmentation part       -0.2108983 magnetization 

 Free energy of the ion-electron system (eV)
  ---------------------------------------------------
  alpha Z        PSCENC =         0.04521825
  Ewald energy   TEWEN  =      1513.56575091
  -Hartree energ DENC   =     -1118.91776754
  -exchange      EXHF   =       144.68320663
  -V(xc)+E(xc)   XCENC  =         0.00000000
  PAW double counting   =      2084.84049533    -2085.20185238
  entropy T*S    EENTRO =        -0.00000000
  eigenvalues    EBANDS =     -1297.95258434
  atomic energy  EATOM  =      1137.26729263
  ---------------------------------------------------
  free energy    TOTEN  =       378.32975949 eV

  energy without entropy =      378.32975949  energy(sigma->0) =      378.32975949
  exchange ACFDT corr.  =         0.00000000  see jH, gK, PRB 81, 115126


--------------------------------------------------------------------------------------------------------




----------------------------------------- Iteration    1(  12)  ---------------------------------------


    POTLOK:  cpu time   20.7405: real time   20.7909
    SETDIJ:  cpu time    0.2980: real time    0.2987
    TRIAL :  cpu time   37.9408: real time   38.0961
    CORREC:  cpu time   55.7565: real time   55.9538
    CHARGE:  cpu time    2.6318: real time    2.6416
    --------------------------------------------
      LOOP:  cpu time  117.4186: real time  117.8349

 eigenvalue-minimisations  :     0
 total energy-change (2. order) :-0.1315311E+03  (-0.9192936E+02)
 number of electron      24.0000000 magnetization 
 augmentation part       -0.2109036 magnetization 

 Free energy of the ion-electron system (eV)
  ---------------------------------------------------
  alpha Z        PSCENC =         0.04521825
  Ewald energy   TEWEN  =      1513.56575091
  -Hartree energ DENC   =     -1495.65093357
  -exchange      EXHF   =       165.44938028
  -V(xc)+E(xc)   XCENC  =         0.00000000
  PAW double counting   =      1817.12749321    -1817.50020430
  entropy T*S    EENTRO =        -0.00000000
  eigenvalues    EBANDS =     -1073.50532916
  atomic energy  EATOM  =      1137.26729263
  ---------------------------------------------------
  free energy    TOTEN  =       246.79866825 eV

  energy without entropy =      246.79866825  energy(sigma->0) =      246.79866825
  exchange ACFDT corr.  =         0.00000000  see jH, gK, PRB 81, 115126


--------------------------------------------------------------------------------------------------------




----------------------------------------- Iteration    1(  13)  ---------------------------------------


    POTLOK:  cpu time   20.7435: real time   20.7939
    SETDIJ:  cpu time    0.2945: real time    0.2953
    TRIAL :  cpu time   38.0987: real time   38.2532
    CORREC:  cpu time   55.9176: real time   56.1155
    CHARGE:  cpu time    2.6332: real time    2.6430
    --------------------------------------------
      LOOP:  cpu time  117.7331: real time  118.1495

 eigenvalue-minimisations  :     0
 total energy-change (2. order) :-0.8175723E+02  (-0.5602170E+02)
 number of electron      24.0000000 magnetization 
 augmentation part       -0.2142296 magnetization 

 Free energy of the ion-electron system (eV)
  ---------------------------------------------------
  alpha Z        PSCENC =         0.04521825
  Ewald energy   TEWEN  =      1513.56575091
  -Hartree energ DENC   =     -1737.33740084
  -exchange      EXHF   =       186.71875992
  -V(xc)+E(xc)   XCENC  =         0.00000000
  PAW double counting   =      1443.51192062    -1443.96578803
  entropy T*S    EENTRO =        -0.00000000
  eigenvalues    EBANDS =      -934.76431679
  atomic energy  EATOM  =      1137.26729263
  ---------------------------------------------------
  free energy    TOTEN  =       165.04143667 eV

  energy without entropy =      165.04143667  energy(sigma->0) =      165.04143667
  exchange ACFDT corr.  =         0.00000000  see jH, gK, PRB 81, 115126


--------------------------------------------------------------------------------------------------------




----------------------------------------- Iteration    1(  14)  ---------------------------------------


    POTLOK:  cpu time   20.7436: real time   20.7940
    SETDIJ:  cpu time    0.2982: real time    0.2989
    TRIAL :  cpu time   37.9571: real time   38.1129
    CORREC:  cpu time   55.8148: real time   56.0125
    CHARGE:  cpu time    2.6349: real time    2.6446
    --------------------------------------------
      LOOP:  cpu time  117.4955: real time  117.9128

 eigenvalue-minimisations  :     0
 total energy-change (2. order) :-0.5853241E+02  (-0.4806191E+02)
 number of electron      24.0000000 magnetization 
 augmentation part       -0.1840950 magnetization 

 Free energy of the ion-electron system (eV)
  ---------------------------------------------------
  alpha Z        PSCENC =         0.04521825
  Ewald energy   TEWEN  =      1513.56575091
  -Hartree energ DENC   =     -1934.90690159
  -exchange      EXHF   =       207.03599966
  -V(xc)+E(xc)   XCENC  =         0.00000000
  PAW double counting   =      1427.07411276    -1427.63851520
  entropy T*S    EENTRO =        -0.00000000
  eigenvalues    EBANDS =      -815.93392664
  atomic energy  EATOM  =      1137.26729263
  ---------------------------------------------------
  free energy    TOTEN  =       106.50903078 eV

  energy without entropy =      106.50903078  energy(sigma->0) =      106.50903078
  exchange ACFDT corr.  =         0.00000000  see jH, gK, PRB 81, 115126


--------------------------------------------------------------------------------------------------------




----------------------------------------- Iteration    1(  15)  ---------------------------------------


    POTLOK:  cpu time   20.7477: real time   20.7980
    SETDIJ:  cpu time    0.2982: real time    0.2989
    TRIAL :  cpu time   37.9069: real time   38.0610
    CORREC:  cpu time   55.7669: real time   55.9653
    CHARGE:  cpu time    2.6329: real time    2.6426
    --------------------------------------------
      LOOP:  cpu time  117.4013: real time  117.8176

 eigenvalue-minimisations  :     0
 total energy-change (2. order) :-0.5233396E+02  (-0.3980080E+02)
 number of electron      24.0000000 magnetization 
 augmentation part       -0.1186577 magnetization 

 Free energy of the ion-electron system (eV)
  ---------------------------------------------------
  alpha Z        PSCENC =         0.04521825
  Ewald energy   TEWEN  =      1513.56575091
  -Hartree energ DENC   =     -2119.47274094
  -exchange      EXHF   =       228.89378138
  -V(xc)+E(xc)   XCENC  =         0.00000000
  PAW double counting   =      1202.81774331    -1203.53433816
  entropy T*S    EENTRO =        -0.00000000
  eigenvalues    EBANDS =      -705.40763617
  atomic energy  EATOM  =      1137.26729263
  ---------------------------------------------------
  free energy    TOTEN  =        54.17507122 eV

  energy without entropy =       54.17507122  energy(sigma->0) =       54.17507122
  exchange ACFDT corr.  =         0.00000000  see jH, gK, PRB 81, 115126


--------------------------------------------------------------------------------------------------------




----------------------------------------- Iteration    1(  16)  ---------------------------------------


    POTLOK:  cpu time   20.7425: real time   20.7929
    SETDIJ:  cpu time    0.2954: real time    0.2961
    TRIAL :  cpu time   37.9581: real time   38.1133
    CORREC:  cpu time   55.8191: real time   56.0166
    CHARGE:  cpu time    2.6325: real time    2.6421
    --------------------------------------------
      LOOP:  cpu time  117.4976: real time  117.9143

 eigenvalue-minimisations  :     0
 total energy-change (2. order) :-0.4458917E+02  (-0.3124749E+02)
 number of electron      24.0000000 magnetization 
 augmentation part       -0.0450072 magnetization 

 Free energy of the ion-electron system (eV)
  ---------------------------------------------------
  alpha Z        PSCENC =         0.04521825
  Ewald energy   TEWEN  =      1513.56575091
  -Hartree energ DENC   =     -2257.19173046
  -exchange      EXHF   =       248.20724795
  -V(xc)+E(xc)   XCENC  =         0.00000000
  PAW double counting   =      1597.58741948    -1598.49203640
  entropy T*S    EENTRO =        -0.00000000
  eigenvalues    EBANDS =      -631.40325904
  atomic energy  EATOM  =      1137.26729263
  ---------------------------------------------------
  free energy    TOTEN  =         9.58590332 eV

  energy without entropy =        9.58590332  energy(sigma->0) =        9.58590332
  exchange ACFDT corr.  =         0.00000000  see jH, gK, PRB 81, 115126


--------------------------------------------------------------------------------------------------------




----------------------------------------- Iteration    1(  17)  ---------------------------------------


    POTLOK:  cpu time   20.7631: real time   20.8135
    SETDIJ:  cpu time    0.2949: real time    0.2956
    TRIAL :  cpu time   38.0098: real time   38.1648
    CORREC:  cpu time   56.0217: real time   56.2210
    CHARGE:  cpu time    2.6316: real time    2.6413
    --------------------------------------------
      LOOP:  cpu time  117.7739: real time  118.1920

 eigenvalue-minimisations  :     0
 total energy-change (2. order) :-0.3539524E+02  (-0.2402219E+02)
 number of electron      24.0000000 magnetization 
 augmentation part        0.0619338 magnetization 

 Free energy of the ion-electron system (eV)
  ---------------------------------------------------
  alpha Z        PSCENC =         0.04521825
  Ewald energy   TEWEN  =      1513.56575091
  -Hartree energ DENC   =     -2347.31614627
  -exchange      EXHF   =       264.47883590
  -V(xc)+E(xc)   XCENC  =         0.00000000
  PAW double counting   =      1517.77347199    -1518.82143120
  entropy T*S    EENTRO =        -0.00000000
  eigenvalues    EBANDS =      -592.80233090
  atomic energy  EATOM  =      1137.26729263
  ---------------------------------------------------
  free energy    TOTEN  =       -25.80933869 eV

  energy without entropy =      -25.80933869  energy(sigma->0) =      -25.80933869
  exchange ACFDT corr.  =         0.00000000  see jH, gK, PRB 81, 115126


--------------------------------------------------------------------------------------------------------




----------------------------------------- Iteration    1(  18)  ---------------------------------------


    POTLOK:  cpu time   20.7632: real time   20.8136
    SETDIJ:  cpu time    0.2954: real time    0.2961
    TRIAL :  cpu time   37.9636: real time   38.1847
    CORREC:  cpu time   55.9105: real time   56.1080
    CHARGE:  cpu time    2.6303: real time    2.6404
    --------------------------------------------
      LOOP:  cpu time  117.6109: real time  118.0937

 eigenvalue-minimisations  :     0
 total energy-change (2. order) :-0.2670397E+02  (-0.1419046E+02)
 number of electron      24.0000000 magnetization 
 augmentation part        0.1428816 magnetization 

 Free energy of the ion-electron system (eV)
  ---------------------------------------------------
  alpha Z        PSCENC =         0.04521825
  Ewald energy   TEWEN  =      1513.56575091
  -Hartree energ DENC   =     -2409.09153730
  -exchange      EXHF   =       278.60604677
  -V(xc)+E(xc)   XCENC  =         0.00000000
  PAW double counting   =      1635.76007753    -1636.94622764
  entropy T*S    EENTRO =        -0.00000000
  eigenvalues    EBANDS =      -571.71992770
  atomic energy  EATOM  =      1137.26729263
  ---------------------------------------------------
  free energy    TOTEN  =       -52.51330654 eV

  energy without entropy =      -52.51330654  energy(sigma->0) =      -52.51330654
  exchange ACFDT corr.  =         0.00000000  see jH, gK, PRB 81, 115126


--------------------------------------------------------------------------------------------------------




----------------------------------------- Iteration    1(  19)  ---------------------------------------


    POTLOK:  cpu time   20.7580: real time   20.8084
    SETDIJ:  cpu time    0.2953: real time    0.2960
    TRIAL :  cpu time   38.1517: real time   38.3063
    CORREC:  cpu time   55.9801: real time   56.1786
    CHARGE:  cpu time    2.6240: real time    2.6335
    --------------------------------------------
      LOOP:  cpu time  117.8604: real time  118.2772

 eigenvalue-minimisations  :     0
 total energy-change (2. order) :-0.1464128E+02  (-0.7454203E+01)
 number of electron      24.0000000 magnetization 
 augmentation part        0.1987536 magnetization 

 Free energy of the ion-electron system (eV)
  ---------------------------------------------------
  alpha Z        PSCENC =         0.04521825
  Ewald energy   TEWEN  =      1513.56575091
  -Hartree energ DENC   =     -2463.36436509
  -exchange      EXHF   =       289.16252470
  -V(xc)+E(xc)   XCENC  =         0.00000000
  PAW double counting   =      1722.41067997    -1723.66994644
  entropy T*S    EENTRO =        -0.00000000
  eigenvalues    EBANDS =      -542.57174067
  atomic energy  EATOM  =      1137.26729263
  ---------------------------------------------------
  free energy    TOTEN  =       -67.15458574 eV

  energy without entropy =      -67.15458574  energy(sigma->0) =      -67.15458574
  exchange ACFDT corr.  =        -0.00000000  see jH, gK, PRB 81, 115126


--------------------------------------------------------------------------------------------------------




----------------------------------------- Iteration    1(  20)  ---------------------------------------


    POTLOK:  cpu time   20.7691: real time   20.8195
    SETDIJ:  cpu time    0.2952: real time    0.2960
    TRIAL :  cpu time   38.0725: real time   38.2270
    CORREC:  cpu time   55.9063: real time   56.1048
    CHARGE:  cpu time    2.6356: real time    2.6454
    --------------------------------------------
      LOOP:  cpu time  117.7299: real time  118.1464

 eigenvalue-minimisations  :     0
 total energy-change (2. order) :-0.7658578E+01  (-0.5212233E+01)
 number of electron      24.0000000 magnetization 
 augmentation part        0.2123490 magnetization 

 Free energy of the ion-electron system (eV)
  ---------------------------------------------------
  alpha Z        PSCENC =         0.04521825
  Ewald energy   TEWEN  =      1513.56575091
  -Hartree energ DENC   =     -2493.08644964
  -exchange      EXHF   =       293.96101417
  -V(xc)+E(xc)   XCENC  =         0.00000000
  PAW double counting   =      1715.19882338    -1716.50068946
  entropy T*S    EENTRO =        -0.00000000
  eigenvalues    EBANDS =      -525.26412353
  atomic energy  EATOM  =      1137.26729263
  ---------------------------------------------------
  free energy    TOTEN  =       -74.81316328 eV

  energy without entropy =      -74.81316328  energy(sigma->0) =      -74.81316328
  exchange ACFDT corr.  =         0.00000000  see jH, gK, PRB 81, 115126


--------------------------------------------------------------------------------------------------------




----------------------------------------- Iteration    1(  21)  ---------------------------------------


    POTLOK:  cpu time   20.7647: real time   20.8152
    SETDIJ:  cpu time    0.2954: real time    0.2961
    TRIAL :  cpu time   38.1734: real time   38.3280
    CORREC:  cpu time   55.8000: real time   55.9986
    CHARGE:  cpu time    2.6297: real time    2.6398
    --------------------------------------------
      LOOP:  cpu time  117.7097: real time  118.1273

 eigenvalue-minimisations  :     0
 total energy-change (2. order) :-0.5368678E+01  (-0.3087433E+01)
 number of electron      24.0000000 magnetization 
 augmentation part        0.2261948 magnetization 

 Free energy of the ion-electron system (eV)
  ---------------------------------------------------
  alpha Z        PSCENC =         0.04521825
  Ewald energy   TEWEN  =      1513.56575091
  -Hartree energ DENC   =     -2503.50380378
  -exchange      EXHF   =       295.08125648
  -V(xc)+E(xc)   XCENC  =         0.00000000
  PAW double counting   =      1333.37712107    -1334.65463552
  entropy T*S    EENTRO =        -0.00000000
  eigenvalues    EBANDS =      -521.36004148
  atomic energy  EATOM  =      1137.26729263
  ---------------------------------------------------
  free energy    TOTEN  =       -80.18184145 eV

  energy without entropy =      -80.18184145  energy(sigma->0) =      -80.18184145
  exchange ACFDT corr.  =         0.00000000  see jH, gK, PRB 81, 115126


--------------------------------------------------------------------------------------------------------




----------------------------------------- Iteration    1(  22)  ---------------------------------------


    POTLOK:  cpu time   20.7678: real time   20.8181
    SETDIJ:  cpu time    0.2950: real time    0.2957
    TRIAL :  cpu time   38.0749: real time   38.2292
    CORREC:  cpu time   55.9843: real time   56.1833
    CHARGE:  cpu time    2.6330: real time    2.6429
    --------------------------------------------
      LOOP:  cpu time  117.8060: real time  118.2229

 eigenvalue-minimisations  :     0
 total energy-change (2. order) :-0.3180138E+01  (-0.1803309E+01)
 number of electron      24.0000000 magnetization 
 augmentation part        0.2266981 magnetization 

 Free energy of the ion-electron system (eV)
  ---------------------------------------------------
  alpha Z        PSCENC =         0.04521825
  Ewald energy   TEWEN  =      1513.56575091
  -Hartree energ DENC   =     -2506.81927816
  -exchange      EXHF   =       294.89566230
  -V(xc)+E(xc)   XCENC  =         0.00000000
  PAW double counting   =      1656.21772065    -1657.51097873
  entropy T*S    EENTRO =        -0.00000000
  eigenvalues    EBANDS =      -521.02336690
  atomic energy  EATOM  =      1137.26729263
  ---------------------------------------------------
  free energy    TOTEN  =       -83.36197905 eV

  energy without entropy =      -83.36197905  energy(sigma->0) =      -83.36197905
  exchange ACFDT corr.  =        -0.00000000  see jH, gK, PRB 81, 115126


--------------------------------------------------------------------------------------------------------




----------------------------------------- Iteration    1(  23)  ---------------------------------------


    POTLOK:  cpu time   20.7622: real time   20.8125
    SETDIJ:  cpu time    0.2950: real time    0.2957
    TRIAL :  cpu time   37.9778: real time   38.1329
    CORREC:  cpu time   55.8440: real time   56.0420
    CHARGE:  cpu time    2.6217: real time    2.6314
    --------------------------------------------
      LOOP:  cpu time  117.5495: real time  117.9668

 eigenvalue-minimisations  :     0
 total energy-change (2. order) :-0.1834995E+01  (-0.1115305E+01)
 number of electron      24.0000000 magnetization 
 augmentation part        0.2178531 magnetization 

 Free energy of the ion-electron system (eV)
  ---------------------------------------------------
  alpha Z        PSCENC =         0.04521825
  Ewald energy   TEWEN  =      1513.56575091
  -Hartree energ DENC   =     -2511.86941210
  -exchange      EXHF   =       295.37119094
  -V(xc)+E(xc)   XCENC  =         0.00000000
  PAW double counting   =      1344.21828047    -1345.51402322
  entropy T*S    EENTRO =        -0.00000000
  eigenvalues    EBANDS =      -518.28127228
  atomic energy  EATOM  =      1137.26729263
  ---------------------------------------------------
  free energy    TOTEN  =       -85.19697439 eV

  energy without entropy =      -85.19697439  energy(sigma->0) =      -85.19697439
  exchange ACFDT corr.  =         0.00000000  see jH, gK, PRB 81, 115126


--------------------------------------------------------------------------------------------------------




----------------------------------------- Iteration    1(  24)  ---------------------------------------


    POTLOK:  cpu time   20.7726: real time   20.8230
    SETDIJ:  cpu time    0.2955: real time    0.2962
    TRIAL :  cpu time   38.1861: real time   38.3413
    CORREC:  cpu time   55.7431: real time   55.9407
    CHARGE:  cpu time    2.6316: real time    2.6413
    --------------------------------------------
      LOOP:  cpu time  117.6829: real time  118.0992

 eigenvalue-minimisations  :     0
 total energy-change (2. order) :-0.1135822E+01  (-0.5900239E+00)
 number of electron      24.0000000 magnetization 
 augmentation part        0.2132602 magnetization 

 Free energy of the ion-electron system (eV)
  ---------------------------------------------------
  alpha Z        PSCENC =         0.04521825
  Ewald energy   TEWEN  =      1513.56575091
  -Hartree energ DENC   =     -2518.25588114
  -exchange      EXHF   =       296.30886097
  -V(xc)+E(xc)   XCENC  =         0.00000000
  PAW double counting   =      1397.93081742    -1399.21981072
  entropy T*S    EENTRO =        -0.00000000
  eigenvalues    EBANDS =      -513.97504423
  atomic energy  EATOM  =      1137.26729263
  ---------------------------------------------------
  free energy    TOTEN  =       -86.33279590 eV

  energy without entropy =      -86.33279590  energy(sigma->0) =      -86.33279590
  exchange ACFDT corr.  =         0.00000000  see jH, gK, PRB 81, 115126


--------------------------------------------------------------------------------------------------------




----------------------------------------- Iteration    1(  25)  ---------------------------------------


    POTLOK:  cpu time   20.7627: real time   20.8131
    SETDIJ:  cpu time    0.2956: real time    0.2963
    TRIAL :  cpu time   38.0501: real time   38.2038
    CORREC:  cpu time   55.7720: real time   55.9691
    CHARGE:  cpu time    2.6264: real time    2.6363
    --------------------------------------------
      LOOP:  cpu time  117.5582: real time  117.9731

 eigenvalue-minimisations  :     0
 total energy-change (2. order) :-0.5933583E+00  (-0.3215781E+00)
 number of electron      24.0000000 magnetization 
 augmentation part        0.2019182 magnetization 

 Free energy of the ion-electron system (eV)
  ---------------------------------------------------
  alpha Z        PSCENC =         0.04521825
  Ewald energy   TEWEN  =      1513.56575091
  -Hartree energ DENC   =     -2522.31072938
  -exchange      EXHF   =       297.04101098
  -V(xc)+E(xc)   XCENC  =         0.00000000
  PAW double counting   =      1367.46116361    -1368.74732385
  entropy T*S    EENTRO =        -0.00000000
  eigenvalues    EBANDS =      -511.24853732
  atomic energy  EATOM  =      1137.26729263
  ---------------------------------------------------
  free energy    TOTEN  =       -86.92615417 eV

  energy without entropy =      -86.92615417  energy(sigma->0) =      -86.92615417
  exchange ACFDT corr.  =        -0.00000000  see jH, gK, PRB 81, 115126


--------------------------------------------------------------------------------------------------------




----------------------------------------- Iteration    1(  26)  ---------------------------------------


    POTLOK:  cpu time   20.7679: real time   20.8183
    SETDIJ:  cpu time    0.2960: real time    0.2967
    TRIAL :  cpu time   38.0969: real time   38.2525
    CORREC:  cpu time   55.7549: real time   55.9548
    CHARGE:  cpu time    2.6300: real time    2.6397
    --------------------------------------------
      LOOP:  cpu time  117.5955: real time  118.0148

 eigenvalue-minimisations  :     0
 total energy-change (2. order) :-0.3206289E+00  (-0.1726670E+00)
 number of electron      24.0000000 magnetization 
 augmentation part        0.2002319 magnetization 

 Free energy of the ion-electron system (eV)
  ---------------------------------------------------
  alpha Z        PSCENC =         0.04521825
  Ewald energy   TEWEN  =      1513.56575091
  -Hartree energ DENC   =     -2523.73067104
  -exchange      EXHF   =       297.41387031
  -V(xc)+E(xc)   XCENC  =         0.00000000
  PAW double counting   =      1344.47176343    -1345.73848900
  entropy T*S    EENTRO =        -0.00000000
  eigenvalues    EBANDS =      -510.54151856
  atomic energy  EATOM  =      1137.26729263
  ---------------------------------------------------
  free energy    TOTEN  =       -87.24678307 eV

  energy without entropy =      -87.24678307  energy(sigma->0) =      -87.24678307
  exchange ACFDT corr.  =         0.00000000  see jH, gK, PRB 81, 115126


--------------------------------------------------------------------------------------------------------




----------------------------------------- Iteration    1(  27)  ---------------------------------------


    POTLOK:  cpu time   20.7488: real time   20.7991
    SETDIJ:  cpu time    0.2962: real time    0.2969
    TRIAL :  cpu time   38.1533: real time   38.3084
    CORREC:  cpu time   55.9087: real time   56.1068
    CHARGE:  cpu time    2.6353: real time    2.6451
    --------------------------------------------
      LOOP:  cpu time  117.7902: real time  118.2076

 eigenvalue-minimisations  :     0
 total energy-change (2. order) :-0.1719475E+00  (-0.9410218E-01)
 number of electron      24.0000000 magnetization 
 augmentation part        0.2032558 magnetization 

 Free energy of the ion-electron system (eV)
  ---------------------------------------------------
  alpha Z        PSCENC =         0.04521825
  Ewald energy   TEWEN  =      1513.56575091
  -Hartree energ DENC   =     -2524.21466105
  -exchange      EXHF   =       297.54384907
  -V(xc)+E(xc)   XCENC  =         0.00000000
  PAW double counting   =      1329.19601694    -1330.46138730
  entropy T*S    EENTRO =        -0.00000000
  eigenvalues    EBANDS =      -510.36081003
  atomic energy  EATOM  =      1137.26729263
  ---------------------------------------------------
  free energy    TOTEN  =       -87.41873057 eV

  energy without entropy =      -87.41873057  energy(sigma->0) =      -87.41873057
  exchange ACFDT corr.  =         0.00000000  see jH, gK, PRB 81, 115126


--------------------------------------------------------------------------------------------------------




----------------------------------------- Iteration    1(  28)  ---------------------------------------


    POTLOK:  cpu time   20.7565: real time   20.8068
    SETDIJ:  cpu time    0.2953: real time    0.2961
    TRIAL :  cpu time   38.0287: real time   38.1835
    CORREC:  cpu time   55.7697: real time   55.9673
    CHARGE:  cpu time    2.6307: real time    2.6405
    --------------------------------------------
      LOOP:  cpu time  117.5280: real time  117.9442

 eigenvalue-minimisations  :     0
 total energy-change (2. order) :-0.9432544E-01  (-0.5997060E-01)
 number of electron      24.0000000 magnetization 
 augmentation part        0.2008566 magnetization 

 Free energy of the ion-electron system (eV)
  ---------------------------------------------------
  alpha Z        PSCENC =         0.04521825
  Ewald energy   TEWEN  =      1513.56575091
  -Hartree energ DENC   =     -2524.60819799
  -exchange      EXHF   =       297.58667073
  -V(xc)+E(xc)   XCENC  =         0.00000000
  PAW double counting   =      1345.08934849    -1346.36240089
  entropy T*S    EENTRO =        -0.00000000
  eigenvalues    EBANDS =      -510.09673814
  atomic energy  EATOM  =      1137.26729263
  ---------------------------------------------------
  free energy    TOTEN  =       -87.51305601 eV

  energy without entropy =      -87.51305601  energy(sigma->0) =      -87.51305601
  exchange ACFDT corr.  =         0.00000000  see jH, gK, PRB 81, 115126


--------------------------------------------------------------------------------------------------------




----------------------------------------- Iteration    1(  29)  ---------------------------------------


    POTLOK:  cpu time   20.7527: real time   20.8030
    SETDIJ:  cpu time    0.2954: real time    0.2961
    TRIAL :  cpu time   38.1311: real time   38.2862
    CORREC:  cpu time   55.7390: real time   55.9375
    CHARGE:  cpu time    2.6265: real time    2.6363
    --------------------------------------------
      LOOP:  cpu time  117.5938: real time  118.0110

 eigenvalue-minimisations  :     0
 total energy-change (2. order) :-0.6045991E-01  (-0.3583107E-01)
 number of electron      24.0000000 magnetization 
 augmentation part        0.2023391 magnetization 

 Free energy of the ion-electron system (eV)
  ---------------------------------------------------
  alpha Z        PSCENC =         0.04521825
  Ewald energy   TEWEN  =      1513.56575091
  -Hartree energ DENC   =     -2524.65843812
  -exchange      EXHF   =       297.60318940
  -V(xc)+E(xc)   XCENC  =         0.00000000
  PAW double counting   =      1310.29671251    -1311.56473703
  entropy T*S    EENTRO =        -0.00000000
  eigenvalues    EBANDS =      -510.12850448
  atomic energy  EATOM  =      1137.26729263
  ---------------------------------------------------
  free energy    TOTEN  =       -87.57351592 eV

  energy without entropy =      -87.57351592  energy(sigma->0) =      -87.57351592
  exchange ACFDT corr.  =         0.00000000  see jH, gK, PRB 81, 115126


--------------------------------------------------------------------------------------------------------




----------------------------------------- Iteration    1(  30)  ---------------------------------------


    POTLOK:  cpu time   20.7714: real time   20.8219
    SETDIJ:  cpu time    0.2959: real time    0.2966
    TRIAL :  cpu time   38.2164: real time   38.3715
    CORREC:  cpu time   55.9291: real time   56.1287
    CHARGE:  cpu time    2.6349: real time    2.6449
    --------------------------------------------
      LOOP:  cpu time  117.9020: real time  118.3209

 eigenvalue-minimisations  :     0
 total energy-change (2. order) :-0.3604450E-01  (-0.2210908E-01)
 number of electron      24.0000000 magnetization 
 augmentation part        0.2022629 magnetization 

 Free energy of the ion-electron system (eV)
  ---------------------------------------------------
  alpha Z        PSCENC =         0.04521825
  Ewald energy   TEWEN  =      1513.56575091
  -Hartree energ DENC   =     -2524.73395626
  -exchange      EXHF   =       297.59550656
  -V(xc)+E(xc)   XCENC  =         0.00000000
  PAW double counting   =      1320.44408431    -1321.71419023
  entropy T*S    EENTRO =        -0.00000000
  eigenvalues    EBANDS =      -510.07926658
  atomic energy  EATOM  =      1137.26729263
  ---------------------------------------------------
  free energy    TOTEN  =       -87.60956042 eV

  energy without entropy =      -87.60956042  energy(sigma->0) =      -87.60956042
  exchange ACFDT corr.  =         0.00000000  see jH, gK, PRB 81, 115126


--------------------------------------------------------------------------------------------------------




----------------------------------------- Iteration    1(  31)  ---------------------------------------


    POTLOK:  cpu time   20.7387: real time   20.7891
    SETDIJ:  cpu time    0.2987: real time    0.2994
    TRIAL :  cpu time   38.1004: real time   38.2563
    CORREC:  cpu time   55.9391: real time   56.1393
    CHARGE:  cpu time    2.6306: real time    2.6406
    --------------------------------------------
      LOOP:  cpu time  117.7569: real time  118.1769

 eigenvalue-minimisations  :     0
 total energy-change (2. order) :-0.2214532E-01  (-0.1347044E-01)
 number of electron      24.0000000 magnetization 
 augmentation part        0.2001389 magnetization 

 Free energy of the ion-electron system (eV)
  ---------------------------------------------------
  alpha Z        PSCENC =         0.04521825
  Ewald energy   TEWEN  =      1513.56575091
  -Hartree energ DENC   =     -2524.78884854
  -exchange      EXHF   =       297.60186697
  -V(xc)+E(xc)   XCENC  =         0.00000000
  PAW double counting   =      1321.64719674    -1322.91568129
  entropy T*S    EENTRO =        -0.00000000
  eigenvalues    EBANDS =      -510.05450141
  atomic energy  EATOM  =      1137.26729263
  ---------------------------------------------------
  free energy    TOTEN  =       -87.63170574 eV

  energy without entropy =      -87.63170574  energy(sigma->0) =      -87.63170574
  exchange ACFDT corr.  =         0.00000000  see jH, gK, PRB 81, 115126


--------------------------------------------------------------------------------------------------------




----------------------------------------- Iteration    1(  32)  ---------------------------------------


    POTLOK:  cpu time   20.7698: real time   20.8202
    SETDIJ:  cpu time    0.2954: real time    0.2961
    TRIAL :  cpu time   38.2973: real time   38.4509
    CORREC:  cpu time   55.9069: real time   56.1064
    CHARGE:  cpu time    2.6294: real time    2.6392
    --------------------------------------------
      LOOP:  cpu time  117.9487: real time  118.3650

 eigenvalue-minimisations  :     0
 total energy-change (2. order) :-0.1347408E-01  (-0.9753782E-02)
 number of electron      24.0000000 magnetization 
 augmentation part        0.2001008 magnetization 

 Free energy of the ion-electron system (eV)
  ---------------------------------------------------
  alpha Z        PSCENC =         0.04521825
  Ewald energy   TEWEN  =      1513.56575091
  -Hartree energ DENC   =     -2524.74375276
  -exchange      EXHF   =       297.61898429
  -V(xc)+E(xc)   XCENC  =         0.00000000
  PAW double counting   =      1303.22084746    -1304.48350295
  entropy T*S    EENTRO =        -0.00000000
  eigenvalues    EBANDS =      -510.13601765
  atomic energy  EATOM  =      1137.26729263
  ---------------------------------------------------
  free energy    TOTEN  =       -87.64517982 eV

  energy without entropy =      -87.64517982  energy(sigma->0) =      -87.64517982
  exchange ACFDT corr.  =         0.00000000  see jH, gK, PRB 81, 115126


--------------------------------------------------------------------------------------------------------




----------------------------------------- Iteration    1(  33)  ---------------------------------------


    POTLOK:  cpu time   20.7394: real time   20.7898
    SETDIJ:  cpu time    0.2988: real time    0.2995
    TRIAL :  cpu time   38.1980: real time   38.3541
    CORREC:  cpu time   56.1552: real time   56.3533
    CHARGE:  cpu time    2.6352: real time    2.6450
[...]
  eigenvalues    EBANDS =      -510.08030191
  atomic energy  EATOM  =      1137.26729263
  ---------------------------------------------------
  free energy    TOTEN  =       -87.67732528 eV

  energy without entropy =      -87.67732528  energy(sigma->0) =      -87.67732528
  exchange ACFDT corr.  =         0.00000000  see jH, gK, PRB 81, 115126


--------------------------------------------------------------------------------------------------------




----------------------------------------- Iteration    1(  59)  ---------------------------------------


    POTLOK:  cpu time   19.2060: real time   19.2527
    SETDIJ:  cpu time    0.2962: real time    0.2969
    TRIAL :  cpu time   38.0539: real time   38.2085
    CORREC:  cpu time   54.2681: real time   54.4631
    CHARGE:  cpu time    2.6343: real time    2.6443
    --------------------------------------------
      LOOP:  cpu time  114.4925: real time  114.9023

 eigenvalue-minimisations  :     0
 total energy-change (2. order) :-0.7700101E-04  (-0.5465730E-04)
 number of electron      24.0000000 magnetization 
 augmentation part        0.2005424 magnetization 

 Free energy of the ion-electron system (eV)
  ---------------------------------------------------
  alpha Z        PSCENC =         0.04521825
  Ewald energy   TEWEN  =      1513.56575091
  -Hartree energ DENC   =     -2524.85287054
  -exchange      EXHF   =       297.64420804
  -V(xc)+E(xc)   XCENC  =         0.00000000
  PAW double counting   =      1286.68549504    -1287.94644502
  entropy T*S    EENTRO =        -0.00000000
  eigenvalues    EBANDS =      -510.08605160
  atomic energy  EATOM  =      1137.26729263
  ---------------------------------------------------
  free energy    TOTEN  =       -87.67740228 eV

  energy without entropy =      -87.67740228  energy(sigma->0) =      -87.67740228
  exchange ACFDT corr.  =         0.00000000  see jH, gK, PRB 81, 115126


--------------------------------------------------------------------------------------------------------




----------------------------------------- Iteration    1(  60)  ---------------------------------------


    POTLOK:  cpu time   19.1911: real time   19.2378
    SETDIJ:  cpu time    0.2951: real time    0.2958
    TRIAL :  cpu time   38.2380: real time   38.3939
    CORREC:  cpu time   54.3039: real time   54.4992
    CHARGE:  cpu time    2.6314: real time    2.6414
    --------------------------------------------
      LOOP:  cpu time  114.6964: real time  115.1078

 eigenvalue-minimisations  :     0
 total energy-change (2. order) :-0.5465868E-04  (-0.5300161E-04)
 number of electron      24.0000000 magnetization 
 augmentation part        0.2006171 magnetization 

 Free energy of the ion-electron system (eV)
  ---------------------------------------------------
  alpha Z        PSCENC =         0.04521825
  Ewald energy   TEWEN  =      1513.56575091
  -Hartree energ DENC   =     -2524.86702096
  -exchange      EXHF   =       297.64703027
  -V(xc)+E(xc)   XCENC  =         0.00000000
  PAW double counting   =      1287.56817971    -1288.82916861
  entropy T*S    EENTRO =        -0.00000000
  eigenvalues    EBANDS =      -510.07473914
  atomic energy  EATOM  =      1137.26729263
  ---------------------------------------------------
  free energy    TOTEN  =       -87.67745694 eV

  energy without entropy =      -87.67745694  energy(sigma->0) =      -87.67745694
  exchange ACFDT corr.  =         0.00000000  see jH, gK, PRB 81, 115126


--------------------------------------------------------------------------------------------------------


  average scaling for gradient   0.1977


 average (electrostatic) potential at core
  the test charge radii are     0.5412  0.5586  0.5531
  (the norm of the test charge is              1.0000)
       1 -94.5529       2 -90.6476       3 -83.2252       4 -85.3995       5 -26.4846
       6 -22.7375       7 -23.0240       8 -23.0221
 
 
 
 E-fermi : -12.1517     XC(G=0):   0.0000     alpha+bet : -0.0110


 k-point     1 :       0.0000    0.0000    0.0000
  band No.  band energies     occupation 
      1     -40.0011      2.00000
      2     -36.8626      2.00000
      3     -27.9643      2.00000
      4     -22.7004      2.00000
      5     -19.1523      2.00000
      6     -18.5445      2.00000
      7     -17.8310      2.00000
      8     -15.7761      2.00000
      9     -15.5512      2.00000
     10     -15.3555      2.00000
     11     -12.9941      2.00000
     12     -12.2987      2.00000
     13       0.0088      0.00000
     14       0.1289      0.00000
     15       0.1360      0.00000
     16       0.1443      0.00000
     17       0.1638      0.00000
     18       0.1726      0.00000
     19       0.2608      0.00000
     20       0.2674      0.00000


--------------------------------------------------------------------------------------------------------


 soft charge-density along one line, spin component           1
         0         1         2         3         4         5         6         7         8         9
 total charge-density along one line
 
 pseudopotential strength for first ion, spin component:           1
 10.043  -0.040  -0.016  -0.012  -0.002   0.006  -0.006  -0.001
 -0.040  -0.110   0.685  -0.002  -0.000   0.001   0.002   0.000
 -0.016   0.685   0.218  -0.001  -0.000   0.001   0.000   0.000
 -0.012  -0.002  -0.001  -3.815   0.001   0.001  -0.876  -0.006
 -0.002  -0.000  -0.000   0.001  -3.821   0.000  -0.006  -0.846
  0.006   0.001   0.001   0.001   0.000  -3.813  -0.006  -0.001
 -0.006   0.002   0.000  -0.876  -0.006  -0.006  27.642   0.004
 -0.001   0.000   0.000  -0.006  -0.846  -0.001   0.004  27.618
  0.004  -0.000  -0.000  -0.006  -0.001  -0.888   0.006   0.001
  0.000  -0.002  -0.000   0.687   0.003   0.004 -18.994  -0.004
  0.000  -0.000  -0.000   0.003   0.669   0.001  -0.004 -18.974
 -0.000   0.001   0.000   0.004   0.001   0.695  -0.005  -0.001
 -0.003  -0.001  -0.000   0.000   0.000   0.001   0.007  -0.000
 -0.003  -0.001  -0.000   0.000   0.001   0.000  -0.002  -0.021
  0.011   0.002   0.002  -0.001   0.000  -0.000   0.009  -0.005
 -0.000  -0.000  -0.000   0.000   0.000   0.000  -0.000   0.008
 -0.004  -0.001  -0.001  -0.001  -0.000   0.000   0.019  -0.001
  0.001   0.000   0.000  -0.001   0.000   0.003  -0.003  -0.000
  0.001   0.000   0.000   0.000   0.003   0.000   0.000   0.005
 -0.005  -0.001  -0.000  -0.001   0.001   0.001  -0.002   0.001
  0.000   0.000   0.000   0.000  -0.001   0.000  -0.000  -0.002
  0.002   0.000   0.000  -0.003   0.000  -0.002  -0.004   0.000
 total augmentation occupancy for first ion, spin component:           1
  1.383   0.134  -0.047   0.084   0.016  -0.033   0.004   0.001   0.008   0.002   0.000   0.004   0.017   0.014  -0.040   0.003
  0.134   0.018  -0.032   0.042   0.009  -0.064   0.002   0.000  -0.002   0.001   0.000  -0.001   0.003   0.001  -0.003   0.001
 -0.047  -0.032   0.204  -0.151  -0.035   0.322  -0.007  -0.002   0.019  -0.002  -0.000   0.007  -0.004   0.005  -0.005  -0.001
  0.084   0.042  -0.151   1.051   0.088   0.116   0.067   0.007   0.005   0.024   0.003   0.001   0.066  -0.002  -0.004   0.009
  0.016   0.009  -0.035   0.088   0.590   0.017   0.007   0.029   0.001   0.003   0.009   0.000   0.009   0.016   0.005   0.021
 -0.033  -0.064   0.322   0.116   0.017   1.165   0.005   0.001   0.058   0.001   0.000   0.018   0.011   0.013  -0.011   0.002
  0.004   0.002  -0.007   0.067   0.007   0.005   0.005   0.001   0.000   0.002   0.000   0.000   0.004  -0.000  -0.000   0.001
  0.001   0.000  -0.002   0.007   0.029   0.001   0.001   0.002   0.000   0.000   0.001   0.000   0.001   0.000   0.000   0.001
  0.008  -0.002   0.019   0.005   0.001   0.058   0.000   0.000   0.003   0.000   0.000   0.001   0.001   0.001  -0.001   0.000
  0.002   0.001  -0.002   0.024   0.003   0.001   0.002   0.000   0.000   0.001   0.000   0.000   0.002  -0.000  -0.000   0.000
  0.000   0.000  -0.000   0.003   0.009   0.000   0.000   0.001   0.000   0.000   0.000   0.000   0.000   0.000   0.000   0.000
  0.004  -0.001   0.007   0.001   0.000   0.018   0.000   0.000   0.001   0.000   0.000   0.000   0.000   0.000  -0.000   0.000
  0.017   0.003  -0.004   0.066   0.009   0.011   0.004   0.001   0.001   0.002   0.000   0.000   0.007  -0.000  -0.001   0.001
  0.014   0.001   0.005  -0.002   0.016   0.013  -0.000   0.000   0.001  -0.000   0.000   0.000  -0.000   0.004   0.000   0.001
 -0.040  -0.003  -0.005  -0.004   0.005  -0.011  -0.000   0.000  -0.001  -0.000   0.000  -0.000  -0.001   0.000   0.002   0.000
  0.003   0.001  -0.001   0.009   0.021   0.002   0.001   0.001   0.000   0.000   0.000   0.000   0.001   0.001   0.000   0.001
 -0.006   0.002  -0.018  -0.002   0.004  -0.050   0.000   0.000  -0.002   0.000   0.000  -0.001   0.001  -0.001   0.001   0.000
 -0.011  -0.001   0.001  -0.046  -0.006  -0.009  -0.003  -0.000  -0.001  -0.001  -0.000  -0.000  -0.005   0.000   0.000  -0.001
 -0.011  -0.001  -0.004   0.001  -0.011  -0.009   0.000  -0.000  -0.001  -0.000  -0.000  -0.000   0.000  -0.003  -0.000  -0.000
  0.028   0.002   0.005   0.004  -0.003   0.009   0.000  -0.000   0.001   0.000   0.000   0.000   0.000  -0.000  -0.001  -0.000
 -0.002  -0.000   0.001  -0.006  -0.014  -0.002  -0.000  -0.001  -0.000  -0.000  -0.000  -0.000  -0.001  -0.000  -0.000  -0.001
  0.007  -0.001   0.013   0.002  -0.002   0.034  -0.000  -0.000   0.001  -0.000  -0.000   0.000  -0.001   0.001  -0.001  -0.000


------------------------ aborting loop because EDIFF is reached ----------------------------------------


    FORLOC:  cpu time    1.8652: real time    1.8698
    FORHF :  cpu time   25.4630: real time   25.5267
    FORNL :  cpu time    2.5141: real time    2.5202
    FORCOR:  cpu time   18.0615: real time   18.1054
    OFIELD:  cpu time    0.0564: real time    0.0565

 VOLUME and BASIS-vectors are now :
 -----------------------------------------------------------------------------
  energy-cutoff  :     2000.00
  volume of cell :    42875.00
      direct lattice vectors                 reciprocal lattice vectors
    35.000000000  0.000000000  0.000000000     0.028571429  0.000000000  0.000000000
     0.000000000 35.000000000  0.000000000     0.000000000  0.028571429  0.000000000
     0.000000000  0.000000000 35.000000000     0.000000000  0.000000000  0.028571429

  length of vectors
    35.000000000 35.000000000 35.000000000     0.028571429  0.028571429  0.028571429


 FORCES acting on ions:
    Electron-Ion                     Ewald-Force                    Non-Local-Force
 -----------------------------------------------------------------------------------------------
   0.720E+02 0.115E+02 0.164E+01   -.781E+02 -.236E+01 0.100E+00   0.685E+01 -.356E+01 -.700E+00
   0.164E+03 -.488E+01 -.198E+01   -.167E+03 0.605E+01 0.223E+01   0.207E+01 -.989E+00 -.201E+00
   -.171E+03 -.289E+03 -.528E+02   0.202E+03 0.343E+03 0.627E+02   -.259E+02 -.452E+02 -.825E+01
   -.954E+02 0.275E+03 0.519E+02   0.706E+02 -.325E+03 -.611E+02   0.205E+02 0.390E+02 0.712E+01
   -.108E+03 0.206E+02 0.456E+01   0.114E+03 -.203E+02 -.454E+01   -.792E+01 -.305E+00 -.525E-02
   0.474E+02 -.582E+02 -.112E+02   -.496E+02 0.637E+02 0.123E+02   0.220E+01 -.549E+01 -.104E+01
   0.447E+02 0.199E+02 0.581E+02   -.467E+02 -.219E+02 -.633E+02   0.198E+01 0.199E+01 0.512E+01
   0.440E+02 0.397E+02 -.475E+02   -.460E+02 -.434E+02 0.517E+02   0.192E+01 0.371E+01 -.407E+01
 -----------------------------------------------------------------------------------------------
   -.306E+01 0.144E+02 0.273E+01   0.213E-13 0.711E-14 0.000E+00   0.166E+01 -.109E+02 -.204E+01
 
 
 POSITION                                       TOTAL-FORCE (eV/Angst)
 -----------------------------------------------------------------------------------
     33.88637      1.32702      0.27517         1.574284      2.922001      0.548795
     32.38858      1.28619      0.27736        -0.210067     -0.111555     -0.013738
     34.53292      2.34939      0.46154        -1.595726     -3.334990     -0.614964
     34.42191      0.13692      0.04962         2.407371      0.552648      0.085110
      0.41332      0.20326      0.05549        -2.446883     -0.002982      0.011756
     31.99335      2.27689      0.46579         0.137230     -0.249991     -0.050538
     32.03574      0.91526     34.31800         0.068732      0.082020      0.181127
     32.04689      0.59180      1.04124         0.065059      0.142848     -0.147548
 -----------------------------------------------------------------------------------
    total drift:                               -0.027418      0.005903      0.024592


--------------------------------------------------------------------------------------------------------



  FREE ENERGIE OF THE ION-ELECTRON SYSTEM (eV)
  ---------------------------------------------------
  free  energy   TOTEN  =       -87.67745694 eV

  energy  without entropy=      -87.67745694  energy(sigma->0) =      -87.67745694
 


--------------------------------------------------------------------------------------------------------


    POTLOK:  cpu time   19.4895: real time   19.5369


--------------------------------------------------------------------------------------------------------


     LOOP+:  cpu time 7318.5561: real time 7343.7749
    4ORBIT:  cpu time    0.0000: real time    0.0000

 total amount of memory used by VASP on root node  5053355. kBytes
========================================================================

   base      :      30000. kBytes
   nonl-proj :     357018. kBytes
   fftplans  :    1713006. kBytes
   grid      :    2822242. kBytes
   one-center:         11. kBytes
   HF        :         96. kBytes
   nonlr-proj:        365. kBytes
   wavefun   :     130617. kBytes
 
  
  
 General timing and accounting informations for this job:
 ========================================================
  
                  Total CPU time used (sec):     8249.285
                            User time (sec):     7550.135
                          System time (sec):      699.150
                         Elapsed time (sec):     8277.288
  
                   Maximum memory used (kb):     7284924.
                   Average memory used (kb):           0.
  
                          Minor page faults:      2343277
                          Major page faults:            5
                 Voluntary context switches:      1031280
 
 PROFILE, used timers:      39
 =============================
 
 index                 routine                    time                            calls level
----------------------------------------------------------------------------------------------
    1    total_time                         8277.289383                                1   1
    2      w1_copy                               2.253626                           1235   2
    3      fftwav_mpi                          269.129919                           1014   2
    4      fftext_mpi                            0.836194                              5   2
    5      overl                                 0.001660                            687   2
    6      orth1                                 2.378790                            471   2
    7      lincom                                2.784776                            336   2
    8      eccp                                 41.529793                            850   2
    9      hamiltmu                             41.179780                             65   2
   10        vhamil                                6.654886                          108   3
   11        overl1                                0.000158                          108   3
   12        kinhamil                             18.350353                          108   3
   13          fftext_mpi                           18.142685                        108   4
   14      pdssyex_zheevx                        3.034305                            115   2
   15      fock_acc                           1699.942317                            165   2
   16        w1_copy                               2.106096                          776   3
   17        fftwav_mpi                          102.442487                          776   3
   18        fock_charge_mu                       92.143069                          501   3
   19          racc0mu_hf                            1.220621                        501   4
   20        rpromu_hf                             3.941260                          501   3
   21        overl1                                0.000368                          275   3
   22        fftext_mpi                           37.626601                          275   3
   23      hamilt_local                         73.423497                            275   2
   24        vhamil                               16.355285                          275   3
   25        kinhamil                             57.067498                          275   3
   26          fftext_mpi                           56.534437                        275   4
   27      w1_dscal                              7.993879                            275   2
   28      eddiag                             1775.560239                             55   2
   29        fock_acc                           1693.600969                          165   3
   30          w1_copy                               1.544261                        773   4
   31          fftwav_mpi                          102.672213                        773   4
   32          fock_charge_mu                       91.815339                        498   4
   33            racc0mu_hf                            1.336430                      498   5
   34          rpromu_hf                             4.060058                        498   4
   35          overl1                                0.000361                        275   4
   36          fftext_mpi                           37.111073                        275   4
   37        fftwav_mpi                           67.930705                          275   3
   38        eccp                                 12.678403                          275   3
   39      rpro1_hf                              0.441134                            240   2
 
 Flat profile
 ============
 
             routine name                   CPU           calls
 ---------------------------------------------------------------
 total_time                           4356.799473           1
 fock_acc                             2918.080099         330
 fftwav_mpi                            542.175324        2838
 fock_charge_mu                        181.401356         999
 fftext_mpi                            150.250990         938
 eccp                                   54.208196        1125
 vhamil                                 23.010171         383
 hamiltmu                               16.174383          65
 rpromu_hf                               8.001318         999
 w1_dscal                                7.993879         275
 w1_copy                                 5.903983        2784
 pdssyex_zheevx                          3.034305         115
 lincom                                  2.784776         336
 racc0mu_hf                              2.557051         999
 orth1                                   2.378790         471
 eddiag                                  1.350163          55
 kinhamil                                0.740729         383
 rpro1_hf                                0.441134         240
 overl                                   0.001660         687
 overl1                                  0.000887         658
 hamilt_local                            0.000714         275
 ---------------------------------------------------------------
  summed up times    8277.28938293457     
 
Profiling took   0.012963  0.005723  0.003271  0.003235 seconds
Profiling took   0.009035 seconds
