 vasp.5.4.1 24Jun15 (build Jan 02 2020 16:21:29) gamma-only                     
  
 executed on           IFC15_impi date 2020.04.19  17:31:57
 running on   32 total cores
 distrk:  each k-point on   32 cores,    1 groups
 distr:  one band on NCORES_PER_BAND=   8 cores,    4 groups


--------------------------------------------------------------------------------------------------------


 INCAR:
 POTCAR:    PAW_PBE C_h_GW 23May2013              
 POTCAR:    PAW_PBE H_h_GW 21Apr2008              
 POTCAR:    PAW_PBE C_h_GW 23May2013              
   VRHFIN =C: s2p2                                                              
   LEXCH  = PE                                                                  
   EATOM  =   147.1560 eV,   10.8157 Ry                                         
                                                                                
   TITEL  = PAW_PBE C_h_GW 23May2013                                            
   LULTRA =        F    use ultrasoft PP ?                                      
   IUNSCR =        1    unscreen: 0-lin 1-nonlin 2-no                           
   RPACOR =    0.800    partial core radius                                     
   POMASS =   12.011; ZVAL   =    4.000    mass and valenz                      
   RCORE  =    1.100    outmost cutoff radius                                   
   RWIGS  =    1.200; RWIGS  =    0.635    wigner-seitz radius (au A)           
   ENMAX  =  741.689; ENMIN  =  556.267 eV                                      
   RCLOC  =    0.804    cutoff for local pot                                    
   LCOR   =        T    correct aug charges                                     
   LPAW   =        T    paw PP                                                  
   EAUG   = 1782.225                                                            
   DEXC   =    0.000                                                            
   RMAX   =    1.128    core radius for proj-oper                               
   RAUG   =    1.300    factor for augmentation sphere                          
   RDEP   =    1.162    radius for radial grids                                 
   RDEPT  =    1.000    core radius for aug-charge                              
                                                                                
   Atomic configuration                                                         
    5 entries                                                                   
     n  l   j            E        occ.                                          
     1  0  0.50      -273.3789   2.0000                                         
     2  0  0.50       -13.7508   2.0000                                         
     2  1  0.50        -5.2854   2.0000                                         
     3  2  1.50        -5.4423   0.0000                                         
     4  3  2.50        -5.4423   0.0000                                         
   Description                                                                  
     l       E           TYP  RCUT    TYP  RCUT                                 
     0    -13.7508457     23  1.000                                             
     0     81.6349560     23  1.000                                             
     0    204.0873900     23  1.000                                             
     1     -5.2854382     23  1.100                                             
     1    204.0873900     23  1.100                                             
     1    380.9631280     23  1.100                                             
     2     81.6349560     23  1.100                                             
     2    204.0873900     23  1.100                                             
  local pseudopotential read in
  partial core-charges read in
  partial kinetic energy density read in
  kinetic energy density of atom read in
  atomic valenz-charges read in
  non local Contribution for L=           0  read in
    real space projection operators read in
  non local Contribution for L=           0  read in
    real space projection operators read in
  non local Contribution for L=           0  read in
    real space projection operators read in
  non local Contribution for L=           1  read in
    real space projection operators read in
  non local Contribution for L=           1  read in
    real space projection operators read in
  non local Contribution for L=           1  read in
    real space projection operators read in
  non local Contribution for L=           2  read in
    real space projection operators read in
  non local Contribution for L=           2  read in
    real space projection operators read in
    PAW grid and wavefunctions read in
 
   number of l-projection  operators is LMAX  =           8
   number of lm-projection operators is LMMAX =          22
 
 POTCAR:    PAW_PBE H_h_GW 21Apr2008              
   VRHFIN =H: ultrasoft test                                                    
   LEXCH  = PE                                                                  
   EATOM  =    12.4884 eV,    0.9179 Ry                                         
                                                                                
   TITEL  = PAW_PBE H_h_GW 21Apr2008                                            
   LULTRA =        F    use ultrasoft PP ?                                      
   IUNSCR =        0    unscreen: 0-lin 1-nonlin 2-no                           
   RPACOR =    0.000    partial core radius                                     
   POMASS =    1.000; ZVAL   =    1.000    mass and valenz                      
   RCORE  =    0.800    outmost cutoff radius                                   
   RWIGS  =    1.100; RWIGS  =    0.582    wigner-seitz radius (au A)           
   ENMAX  =  700.000; ENMIN  =  350.000 eV                                      
   RCLOC  =    0.701    cutoff for local pot                                    
   LCOR   =        T    correct aug charges                                     
   LPAW   =        T    paw PP                                                  
   EAUG   = 1000.000                                                            
   RMAX   =    0.819    core radius for proj-oper                               
   RAUG   =    1.000    factor for augmentation sphere                          
   RDEP   =    0.817    radius for radial grids                                 
   RDEPT  =    1.000    core radius for aug-charge                              
                                                                                
   Atomic configuration                                                         
    3 entries                                                                   
     n  l   j            E        occ.                                          
     1  0  0.50        -6.4927   1.0000                                         
     2  1  0.50        -3.4015   0.0000                                         
     3  2  1.50        13.6058   0.0000                                         
   Description                                                                  
     l       E           TYP  RCUT    TYP  RCUT                                 
     0     -6.4927495     23  0.800                                             
     0      6.8029130     23  0.800                                             
     1     -4.0817478     23  0.800                                             
     1    108.8466080     23  0.800                                             
     2     81.6349560     23  0.800                                             
  local pseudopotential read in
  kinetic energy density of atom read in
  atomic valenz-charges read in
  non local Contribution for L=           0  read in
    real space projection operators read in
  non local Contribution for L=           0  read in
    real space projection operators read in
  non local Contribution for L=           1  read in
    real space projection operators read in
  non local Contribution for L=           1  read in
    real space projection operators read in
  non local Contribution for L=           2  read in
    real space projection operators read in
    PAW grid and wavefunctions read in
 
   number of l-projection  operators is LMAX  =           5
   number of lm-projection operators is LMMAX =          13
 

 ----------------------------------------------------------------------------- 
|                                                                             |
|  ADVICE TO THIS USER RUNNING 'VASP/VAMP'   (HEAR YOUR MASTER'S VOICE ...):  |
|                                                                             |
|      You have a (more or less) 'large supercell' and for larger cells       |
|      it might be more efficient to use real space projection opertators     |
|      So try LREAL= Auto  in the INCAR   file.                               |
|      Mind: At the moment your POTCAR file does not contain real space       |
|       projectors, and has to be modified,  BUT if you                       |
|      want to do an extremely  accurate calculation you might also keep the  |
|      reciprocal projection scheme          (i.e. LREAL=.FALSE.)             |
|                                                                             |
 ----------------------------------------------------------------------------- 

  PAW_PBE C_h_GW 23May2013              :
 energy of atom  1       EATOM= -147.1560
 kinetic energy error for atom=    0.0004 (will be added to EATOM!!)
  PAW_PBE H_h_GW 21Apr2008              :
 energy of atom  2       EATOM=  -12.4884
 kinetic energy error for atom=    0.0001 (will be added to EATOM!!)
 
 
 POSCAR: C H                                     
  positions in cartesian coordinates
  velocities in cartesian coordinates
  No initial velocities read in
 exchange correlation table for  LEXCH =        8
   RHO(1)=    0.500       N(1)  =     2000
   RHO(2)=  100.500       N(2)  =     4000
 


--------------------------------------------------------------------------------------------------------


 ion  position               nearest neighbor table
   1  0.011  0.998  0.022-
   2  0.970  0.011  0.030-   7 1.09   8 1.09   6 1.09
   3  0.017  0.958  0.039-  10 1.09  11 1.09   9 1.09
   4  0.039  0.026  0.040-  13 1.09  14 1.09  12 1.09
   5  0.017  0.997  0.979-  16 1.09  17 1.09  15 1.09
   6  0.949  0.992  0.018-   2 1.09
   7  0.965  0.012  0.061-   2 1.09
   8  0.965  0.040  0.019-   2 1.09
   9  0.046  0.948  0.033-   3 1.09
  10  0.013  0.958  0.069-   3 1.09
  11  0.997  0.938  0.026-   3 1.09
  12  0.069  0.017  0.034-   4 1.09
  13  0.036  0.027  0.071-   4 1.09
  14  0.036  0.054  0.029-   4 1.09
  15  0.013  0.025  0.966-   5 1.09
  16  0.046  0.987  0.972-   5 1.09
  17  0.997  0.977  0.965-   5 1.09
 
  LATTYP: Found a simple cubic cell.
 ALAT       =    35.0000000000
  
  Lattice vectors:
  
 A1 = (  35.0000000000,   0.0000000000,   0.0000000000)
 A2 = (   0.0000000000,  35.0000000000,   0.0000000000)
 A3 = (   0.0000000000,   0.0000000000,  35.0000000000)


Analysis of symmetry for initial positions (statically):
=====================================================================
 Subroutine PRICEL returns:
 Original cell was already a primitive cell.
 

 Routine SETGRP: Setting up the symmetry group for a 
 simple cubic supercell.


 Subroutine GETGRP returns: Found  1 space group operations
 (whereof  1 operations were pure point group operations)
 out of a pool of 48 trial point group operations.


The static configuration has the point symmetry C_1 .


Analysis of symmetry for dynamics (positions and initial velocities):
=====================================================================
 Subroutine PRICEL returns:
 Original cell was already a primitive cell.
 

 Routine SETGRP: Setting up the symmetry group for a 
 simple cubic supercell.


 Subroutine GETGRP returns: Found  1 space group operations
 (whereof  1 operations were pure point group operations)
 out of a pool of 48 trial point group operations.


The dynamic configuration has the point symmetry C_1 .
 
 
 KPOINTS: automatic mesh                          

Automatic generation of k-mesh.
Space group operators:
 irot       det(A)        alpha          n_x          n_y          n_z        tau_x        tau_y        tau_z
    1     1.000000     0.000000     1.000000     0.000000     0.000000     0.000000     0.000000     0.000000
 
 Subroutine IBZKPT returns following result:
 ===========================================
 
 Found      1 irreducible k-points:
 
 Following reciprocal coordinates:
            Coordinates               Weight
  0.000000  0.000000  0.000000      1.000000
 
 Following cartesian coordinates:
            Coordinates               Weight
  0.000000  0.000000  0.000000      1.000000
 
 
 Subroutine IBZKPT_HF returns following result:
 ==============================================
 
 Found      1 k-points in 1st BZ
 the following      1 k-points will be used (e.g. in the exchange kernel)
 Following reciprocal coordinates:   # in IRBZ
  0.000000  0.000000  0.000000    1.00000000   1 t-inv F


--------------------------------------------------------------------------------------------------------




 Dimension of arrays:
   k-points           NKPTS =      1   k-points in BZ     NKDIM =      1   number of bands    NBANDS=     28
   number of dos      NEDOS =    301   number of ions     NIONS =     17
   non local maximal  LDIM  =      8   non local SUM 2l+1 LMDIM =     22
   total plane-waves  NPLWV = ******
   max r-space proj   IRMAX =      1   max aug-charges    IRDMAX=  18497
   dimension x,y,z NGX =   512 NGY =  512 NGZ =  512
   dimension x,y,z NGXF=  1024 NGYF= 1024 NGZF= 1024
   support grid    NGXF=  1024 NGYF= 1024 NGZF= 1024
   ions per type =               5  12
 NGX,Y,Z   is equivalent  to a cutoff of  24.32, 24.32, 24.32 a.u.
 NGXF,Y,Z  is equivalent  to a cutoff of  48.64, 48.64, 48.64 a.u.


 I would recommend the setting:
   dimension x,y,z NGX =   511 NGY =  511 NGZ =  511
 SYSTEM =  C                                       
 POSCAR =  C H                                     

 Startparameter for this run:
   NWRITE =      2    write-flag & timer
   PREC   = accura    normal or accurate (medium, high low for compatibility)
   ISTART =      0    job   : 0-new  1-cont  2-samecut
   ICHARG =      2    charge: 1-file 2-atom 10-const
   ISPIN  =      1    spin polarized calculation?
   LNONCOLLINEAR =      F non collinear calculations
   LSORBIT =      F    spin-orbit coupling
   INIWAV =      1    electr: 0-lowe 1-rand  2-diag
   LASPH  =      T    aspherical Exc in radial PAW
   METAGGA=      F    non-selfconsistent MetaGGA calc.

 Electronic Relaxation 1
   ENCUT  = 2000.0 eV 147.00 Ry   12.12 a.u. 127.63127.63127.63*2*pi/ulx,y,z
   ENINI  = 2000.0     initial cutoff
   ENAUG  = 1782.2 eV  augmentation charge cutoff
   NELM   =     60;   NELMIN=  2; NELMDL= -5     # of ELM steps 
   EDIFF  = 0.1E-06   stopping-criterion for ELM
   LREAL  =      F    real-space projection
   NLSPLINE    = F    spline interpolate recip. space projectors
   LCOMPAT=      F    compatible to vasp.4.4
   GGA_COMPAT  = T    GGA compatible to vasp.4.4-vasp.4.6
   LMAXPAW     = -100 max onsite density
   LMAXMIX     =    2 max onsite mixed and CHGCAR
   VOSKOWN=      0    Vosko Wilk Nusair interpolation
   ROPT   =    0.00000   0.00000
 Ionic relaxation
   EDIFFG = 0.1E-05   stopping-criterion for IOM
   NSW    =      0    number of steps for IOM
   NBLOCK =      1;   KBLOCK =      1    inner block; outer block 
   IBRION =     -1    ionic relax: 0-MD 1-quasi-New 2-CG
   NFREE  =      0    steps in history (QN), initial steepest desc. (CG)
   ISIF   =      0    stress and relaxation
   IWAVPR =     10    prediction:  0-non 1-charg 2-wave 3-comb
   ISYM   =      3    0-nonsym 1-usesym 2-fastsym
   LCORR  =      T    Harris-Foulkes like correction to forces

   POTIM  = 0.5000    time-step for ionic-motion
   TEIN   =    0.0    initial temperature
   TEBEG  =    0.0;   TEEND  =   0.0 temperature during run
   SMASS  =  -3.00    Nose mass-parameter (am)
   estimated Nose-frequenzy (Omega)   =  0.10E-29 period in steps =****** mass=  -0.280E-25a.u.
   SCALEE = 1.0000    scale energy and forces
   NPACO  =    256;   APACO  = 16.0  distance and # of slots for P.C.
   PSTRESS=    0.0 pullay stress

  Mass of Ions in am
   POMASS =  12.01  1.00
  Ionic Valenz
   ZVAL   =   4.00  1.00
  Atomic Wigner-Seitz radii
   RWIGS  =  -1.00 -1.00
  virtual crystal weights 
   VCA    =   1.00  1.00
   NELECT =      32.0000    total number of electrons
   NUPDOWN=      -1.0000    fix difference up-down

 DOS related values:
   EMIN   =  10.00;   EMAX   =-10.00  energy-range for DOS
   EFERMI =   0.00
   ISMEAR =     0;   SIGMA  =   0.01  broadening in eV -4-tet -1-fermi 0-gaus

 Electronic relaxation 2 (details)
   IALGO  =     58    algorithm
   LDIAG  =      T    sub-space diagonalisation (order eigenvalues)
   LSUBROT=      F    optimize rotation matrix (better conditioning)
   TURBO    =      0    0=normal 1=particle mesh
   IRESTART =      0    0=no restart 2=restart with 2 vectors
   NREBOOT  =      0    no. of reboots
   NMIN     =      0    reboot dimension
   EREF     =   0.00    reference energy to select bands
   IMIX   =      4    mixing-type and parameters
     AMIX     =   0.40;   BMIX     =  1.00
     AMIX_MAG =   1.60;   BMIX_MAG =  1.00
     AMIN     =   0.10
     WC   =   100.;   INIMIX=   1;  MIXPRE=   1;  MAXMIX= -45

 Intra band minimization:
   WEIMIN = 0.0000     energy-eigenvalue tresh-hold
   EBREAK =  0.89E-09  absolut break condition
   DEPER  =   0.30     relativ break condition  

   TIME   =   0.40     timestep for ELM

  volume/ion in A,a.u.               =    2522.06     17019.69
  Fermi-wavevector in a.u.,A,eV,Ry     =   0.148499  0.280622  0.300035  0.022052
  Thomas-Fermi vector in A             =   0.821704
 
 Write flags
   LWAVE  =      F    write WAVECAR
   LCHARG =      T    write CHGCAR
   LVTOT  =      F    write LOCPOT, total local potential
   LVHAR  =      F    write LOCPOT, Hartree potential only
   LELF   =      F    write electronic localiz. function (ELF)
   LORBIT =      0    0 simple, 1 ext, 2 COOP (PROOUT)


 Dipole corrections
   LMONO  =      F    monopole corrections only (constant potential shift)
   LDIPOL =      F    correct potential (dipole corrections)
   IDIPOL =      0    1-x, 2-y, 3-z, 4-all directions 
   EPSILON=  1.0000000 bulk dielectric constant

 Exchange correlation treatment:
   GGA     =    --    GGA type
   LEXCH   =     8    internal setting for exchange type
   VOSKOWN=      0    Vosko Wilk Nusair interpolation
   EXXOEP  =     0    0=HF, 1=EXX-LHF (local Hartree Fock) 2=EXX OEP
   LHFCALC =     T    Hartree Fock is set to
   LSYMGRAD=     F    symmetrize gradient (conserves proper symmetry)
   PRECFOCK=normal    Normal, Fast or Accurate (Low or Medium for compatibility)
   LRHFCALC=     F    long range Hartree Fock
   LRSCOR  =     F    long range correlation only (use DFT for short range part)
   LTHOMAS =     F    Thomas Fermi screening in HF
   LMODELHF=     F    short range full HF, long range fraction AEXX
   ENCUT4O =  -1.0   cutoff for four orbital integrals eV
   LMAXFOCK=     4    L truncation for augmentation on plane wave grid
   LMAXFOCKAE=  -1    L truncation for all-electron charge restoration on plane wave grid
   NMAXFOCKAE=   1    number of basis functions for all-electron charge restoration
   LFOCKAEDFT=     F  apply the AE augmentation even for DFT
   NKREDX  =     1    reduce k-point grid by
   NKREDY  =     1    reduce k-point grid by
   NKREDZ  =     1    reduce k-point grid by
   SHIFTRED=     F    shift reduced grid of Gamma
   HFKIDENT=     F    idential grid for each k-point
   ODDONLY =     F    use only odd q-grid points
   EVENONLY=     F    use only even q-grid points
   HFALPHA =   -1.0000 decay constant for conv. correction
   MCALPHA =    0.0000 extent of test-charge in conv. correction in multipole expansion
   AEXX    =    1.0000 exact exchange contribution
   HFSCREEN=    0.0000 screening length (either q_TF or 0.3 A-1)
   HFSCREENC=   0.0000 screening length for correlation (either q_TF or 0.3 A-1)
   HFRCUT  =    0.0000 spherical cutoff for potential kernel
   ALDAX   =    0.0000 LDA exchange part
   AGGAX   =    0.0000 GGA exchange part
   ALDAC   =    0.0000 LDA correlation
   AGGAC   =    0.0000 GGA correlation
   NBANDSGWLOW=     1    first orbital included in HF term
   ENCUTFOCK=  -1.0 apply spherical cutoff to Coloumb kernel
 Linear response parameters
   LEPSILON=     F    determine dielectric tensor
   LRPA    =     F    only Hartree local field effects (RPA)
   LNABLA  =     F    use nabla operator in PAW spheres
   LVEL    =     F    velocity operator in full k-point grid
   LINTERFAST=   F  fast interpolation
   KINTER  =     0    interpolate to denser k-point grid
   CSHIFT  =0.1000    complex shift for real part using Kramers Kronig
   OMEGAMAX=  -1.0    maximum frequency
   DEG_THRESHOLD= 0.2000000E-02 threshold for treating states as degnerate
   RTIME   =    0.100 relaxation time in fs

 Orbital magnetization related:
   ORBITALMAG=     F  switch on orbital magnetization
   LCHIMAG   =     F  perturbation theory with respect to B field
   DQ        =  0.001000  dq finite difference perturbation B field



--------------------------------------------------------------------------------------------------------


 Static calculation
 charge density and potential will be updated during run
 non-spin polarized calculation
 Conjugate gradient for all bands (Freysoldt, et al. PRB 79, 241103 (2009))
 preconditioned conjugated gradient                                        
 perform sub-space diagonalisation
    before iterative eigenvector-optimisation
 modified Broyden-mixing scheme, WC =      100.0
 initial mixing is a Kerker type mixing with AMIX =  0.4000 and BMIX =      1.0000
 Hartree-type preconditioning will be used
 using additional bands           12
 reciprocal scheme for non local part
 use partial core corrections
 no Harris-corrections to forces 
 use gradient corrections 
 use of overlap-Matrix (Vanderbilt PP)
 Gauss-broadening in eV      SIGMA  =   0.01


--------------------------------------------------------------------------------------------------------


  energy-cutoff  :     2000.00
  volume of cell :    42875.00
      direct lattice vectors                 reciprocal lattice vectors
    35.000000000  0.000000000  0.000000000     0.028571429  0.000000000  0.000000000
     0.000000000 35.000000000  0.000000000     0.000000000  0.028571429  0.000000000
     0.000000000  0.000000000 35.000000000     0.000000000  0.000000000  0.028571429

  length of vectors
    35.000000000 35.000000000 35.000000000     0.028571429  0.028571429  0.028571429


 
 k-points in units of 2pi/SCALE and weight: automatic mesh                          
   0.00000000  0.00000000  0.00000000       1.000
 
 k-points in reciprocal lattice and weights: automatic mesh                          
   0.00000000  0.00000000  0.00000000       1.000
 
 position of ions in fractional coordinates (direct lattice) 
   0.01092921  0.99798266  0.02191131
   0.97026744  0.01133746  0.03031246
   0.01688136  0.95809091  0.03851365
   0.03937912  0.02566958  0.03997570
   0.01719888  0.99682759  0.97876867
   0.94938358  0.99195714  0.01766658
   0.96500806  0.01244957  0.06101483
   0.96531240  0.03982070  0.01865973
   0.04579754  0.94791571  0.03286008
   0.01254196  0.95809297  0.06937962
   0.99685946  0.93775188  0.02598040
   0.06869697  0.01672688  0.03430668
   0.03553660  0.02702784  0.07087743
   0.03566781  0.05442922  0.02854145
   0.01312034  0.02505826  0.96620291
   0.04610554  0.98732973  0.97200937
   0.99715626  0.97721286  0.96516512
 
 position of ions in cartesian coordinates  (Angst):
   0.38252221 34.92939303  0.76689582
  33.95936053  0.39681125  1.06093593
   0.59084747 33.53318186  1.34797791
   1.37826905  0.89843536  1.39914944
   0.60196094 34.88896581 34.25690341
  33.22842540 34.71849975  0.61833023
  33.77528223  0.43573508  2.13551890
  33.78593397  1.39372444  0.65309065
   1.60291380 33.17705000  1.15010285
   0.43896858 33.53325402  2.42828668
  34.89008094 32.82131575  0.90931390
   2.40439397  0.58544074  1.20073365
   1.24378092  0.94597430  2.48070991
   1.24837318  1.90502262  0.99895071
   0.45921182  0.87703910 33.81710181
   1.61369399 34.55654055 34.02032790
  34.90046922 34.20245018 33.78077931
 


--------------------------------------------------------------------------------------------------------


 use parallel FFT for wavefunctions z direction half grid
 k-point  1 :   0.0000 0.0000 0.0000  plane waves: 4353902

 maximum and minimum number of plane-waves per node :    544247   544233

 maximum number of plane-waves:   4353902
 maximum index in each direction: 
   IXMAX=  127   IYMAX=  127   IZMAX=  127
   IXMIN= -127   IYMIN= -127   IZMIN=    0

 NGX is ok and might be reduce to 510
 NGY is ok and might be reduce to 510
 NGZ is ok and might be reduce to 510

 parallel 3D FFT for wavefunctions:
    minimum data exchange during FFTs selected (reduces bandwidth)
 parallel 3D FFT for charge:
    minimum data exchange during FFTs selected (reduces bandwidth)


 FFT grid for exact exchange (Hartree Fock) 
  NGX =384; NGY =384; NGZ =384

 use parallel FFT for wavefunctions z direction half grid
 
 Radii for the augmentation spheres in the non-local exchange
 for species   1 augmentation radius   0.676 (default was   0.541)
       energy cutoff for augmentation   8000.0
 for species   2 augmentation radius   0.588 (default was   0.553)
       energy cutoff for augmentation   8000.0

 real space projection operators:
  total allocation   :       4312.70 KBytes
  max/ min on nodes  :        571.48        516.99

 Maximum index for augmentation-charges in exchange          246
  SETUP_FOCK is finished

 total amount of memory used by VASP on root node  4819662. kBytes
========================================================================

   base      :      30000. kBytes
   nonl-proj :     339603. kBytes
   fftplans  :    1713006. kBytes
   grid      :    2553282. kBytes
   one-center:         34. kBytes
   HF        :        193. kBytes
   nonlr-proj:        673. kBytes
   wavefun   :     182871. kBytes
 
     INWAV:  cpu time    0.0000: real time    0.0002
 Broyden mixing: mesh for mixing (old mesh)
   NGX =255   NGY =255   NGZ =255
  (NGX  =***   NGY  =***   NGZ  =***)
  gives a total of ****** points

 initial charge density was supplied:
 charge density of overlapping atoms calculated
 number of electron      32.0000000 magnetization 
 keeping initial charge density in first step


--------------------------------------------------------------------------------------------------------


 Maximum index for augmentation-charges          798 (set IRDMAX)


--------------------------------------------------------------------------------------------------------


 FEWALD executed in parallel
    FEWALD:  cpu time    0.0003: real time    0.0003


----------------------------------------- Iteration    1(   1)  ---------------------------------------


    POTLOK:  cpu time   17.6402: real time   17.6910
    SETDIJ:  cpu time    0.1423: real time    0.1427
    TRIAL :  cpu time   21.2771: real time   21.3431
    CORREC:  cpu time    0.0001: real time    0.0001
    --------------------------------------------
      LOOP:  cpu time   39.1802: real time   39.2993

 eigenvalue-minimisations  :    56
 total energy-change (2. order) : 0.2713170E+03  (-0.5896295E+03)
 number of electron      32.0000000 magnetization 
 augmentation part       32.0000000 magnetization 

 Free energy of the ion-electron system (eV)
  ---------------------------------------------------
  alpha Z        PSCENC =         0.07114325
  Ewald energy   TEWEN  =      2553.17862249
  -Hartree energ DENC   =     -3081.52840564
  -exchange      EXHF   =         0.00000000
  -V(xc)+E(xc)   XCENC  =         0.00000000
  PAW double counting   =       619.60395647     -620.36513880
  entropy T*S    EENTRO =        -0.00000000
  eigenvalues    EBANDS =         4.10063105
  atomic energy  EATOM  =       796.25614934
  ---------------------------------------------------
  free energy    TOTEN  =       271.31695816 eV

  energy without entropy =      271.31695816  energy(sigma->0) =      271.31695816
  exchange ACFDT corr.  =         0.00000000  see jH, gK, PRB 81, 115126


--------------------------------------------------------------------------------------------------------




----------------------------------------- Iteration    1(   2)  ---------------------------------------


    TRIAL :  cpu time   32.0430: real time   32.1415
    CORREC:  cpu time    0.0002: real time    0.0002
    --------------------------------------------
      LOOP:  cpu time   32.0458: real time   32.1468

 eigenvalue-minimisations  :    96
 total energy-change (2. order) :-0.5700846E+02  (-0.5575795E+02)
 number of electron      32.0000000 magnetization 
 augmentation part       32.0000000 magnetization 

 Free energy of the ion-electron system (eV)
  ---------------------------------------------------
  alpha Z        PSCENC =         0.07114325
  Ewald energy   TEWEN  =      2553.17862249
  -Hartree energ DENC   =     -3081.52840564
  -exchange      EXHF   =         0.00000000
  -V(xc)+E(xc)   XCENC  =         0.00000000
  PAW double counting   =       619.60395647     -620.36513880
  entropy T*S    EENTRO =        -0.00484588
  eigenvalues    EBANDS =       -52.90298164
  atomic energy  EATOM  =       796.25614934
  ---------------------------------------------------
  free energy    TOTEN  =       214.30849958 eV

  energy without entropy =      214.31334546  energy(sigma->0) =      214.31092252
  exchange ACFDT corr.  =         0.00000000  see jH, gK, PRB 81, 115126


--------------------------------------------------------------------------------------------------------




----------------------------------------- Iteration    1(   3)  ---------------------------------------


    TRIAL :  cpu time   42.4317: real time   42.5588
    CORREC:  cpu time    0.0002: real time    0.0002
    --------------------------------------------
      LOOP:  cpu time   42.4342: real time   42.5640

 eigenvalue-minimisations  :    96
 total energy-change (2. order) :-0.2284732E+02  (-0.2182347E+02)
 number of electron      32.0000000 magnetization 
 augmentation part       32.0000000 magnetization 

 Free energy of the ion-electron system (eV)
  ---------------------------------------------------
  alpha Z        PSCENC =         0.07114325
  Ewald energy   TEWEN  =      2553.17862249
  -Hartree energ DENC   =     -3081.52840564
  -exchange      EXHF   =         0.00000000
  -V(xc)+E(xc)   XCENC  =         0.00000000
  PAW double counting   =       619.60395647     -620.36513880
  entropy T*S    EENTRO =        -0.01175592
  eigenvalues    EBANDS =       -75.74339027
  atomic energy  EATOM  =       796.25614934
  ---------------------------------------------------
  free energy    TOTEN  =       191.46118091 eV

  energy without entropy =      191.47293683  energy(sigma->0) =      191.46705887
  exchange ACFDT corr.  =         0.00000000  see jH, gK, PRB 81, 115126


--------------------------------------------------------------------------------------------------------




----------------------------------------- Iteration    1(   4)  ---------------------------------------


    TRIAL :  cpu time   44.7647: real time   44.9015
    CORREC:  cpu time    0.0001: real time    0.0001
    --------------------------------------------
      LOOP:  cpu time   44.7689: real time   44.9076

 eigenvalue-minimisations  :   112
 total energy-change (2. order) :-0.1574983E+02  (-0.1437386E+02)
 number of electron      32.0000000 magnetization 
 augmentation part       32.0000000 magnetization 

 Free energy of the ion-electron system (eV)
  ---------------------------------------------------
  alpha Z        PSCENC =         0.07114325
  Ewald energy   TEWEN  =      2553.17862249
  -Hartree energ DENC   =     -3081.52840564
  -exchange      EXHF   =         0.00000000
  -V(xc)+E(xc)   XCENC  =         0.00000000
  PAW double counting   =       619.60395647     -620.36513880
  entropy T*S    EENTRO =        -0.00000000
  eigenvalues    EBANDS =       -91.50497449
  atomic energy  EATOM  =       796.25614934
  ---------------------------------------------------
  free energy    TOTEN  =       175.71135261 eV

  energy without entropy =      175.71135261  energy(sigma->0) =      175.71135261
  exchange ACFDT corr.  =         0.00000000  see jH, gK, PRB 81, 115126


--------------------------------------------------------------------------------------------------------




----------------------------------------- Iteration    1(   5)  ---------------------------------------


    TRIAL :  cpu time   41.2498: real time   41.3751
    CORREC:  cpu time    0.0001: real time    0.0001
    CHARGE:  cpu time    3.3057: real time    3.3185
    --------------------------------------------
      LOOP:  cpu time   44.5598: real time   44.7006

 eigenvalue-minimisations  :    92
 total energy-change (2. order) :-0.1099464E+02  (-0.1087988E+02)
 number of electron      32.0000000 magnetization 
 augmentation part        0.1150273 magnetization 

 Free energy of the ion-electron system (eV)
  ---------------------------------------------------
  alpha Z        PSCENC =         0.07114325
  Ewald energy   TEWEN  =      2553.17862249
  -Hartree energ DENC   =     -3081.52840564
  -exchange      EXHF   =         0.00000000
  -V(xc)+E(xc)   XCENC  =         0.00000000
  PAW double counting   =       619.60395647     -620.36513880
  entropy T*S    EENTRO =        -0.00000000
  eigenvalues    EBANDS =      -102.49961610
  atomic energy  EATOM  =       796.25614934
  ---------------------------------------------------
  free energy    TOTEN  =       164.71671101 eV

  energy without entropy =      164.71671101  energy(sigma->0) =      164.71671101
  exchange ACFDT corr.  =         0.00000000  see jH, gK, PRB 81, 115126


--------------------------------------------------------------------------------------------------------




----------------------------------------- Iteration    1(   6)  ---------------------------------------


    POTLOK:  cpu time   20.2873: real time   20.3427
    SETDIJ:  cpu time    0.3000: real time    0.3007
    TRIAL :  cpu time   66.2560: real time   66.5281
    CORREC:  cpu time   79.4944: real time   79.8030
    CHARGE:  cpu time    2.9596: real time    2.9710
    --------------------------------------------
      LOOP:  cpu time  169.2981: real time  169.9487

 eigenvalue-minimisations  :     0
 total energy-change (2. order) : 0.3327123E+03  (-0.2083090E+03)
 number of electron      32.0000000 magnetization 
 augmentation part        0.2468049 magnetization 

 Free energy of the ion-electron system (eV)
  ---------------------------------------------------
  alpha Z        PSCENC =         0.07114325
  Ewald energy   TEWEN  =      2553.17862249
  -Hartree energ DENC   =     -1126.95635322
  -exchange      EXHF   =       153.51521188
  -V(xc)+E(xc)   XCENC  =         0.00000000
  PAW double counting   =      2077.37532444    -2077.73635906
  entropy T*S    EENTRO =        -0.00000000
  eigenvalues    EBANDS =     -1878.27472317
  atomic energy  EATOM  =       796.25614934
  ---------------------------------------------------
  free energy    TOTEN  =       497.42901596 eV

  energy without entropy =      497.42901596  energy(sigma->0) =      497.42901596
  exchange ACFDT corr.  =        -0.00000000  see jH, gK, PRB 81, 115126


--------------------------------------------------------------------------------------------------------




----------------------------------------- Iteration    1(   7)  ---------------------------------------


    POTLOK:  cpu time   20.2992: real time   20.3547
    SETDIJ:  cpu time    0.2999: real time    0.3007
    TRIAL :  cpu time   66.0219: real time   66.2920
    CORREC:  cpu time   79.3840: real time   79.6950
    CHARGE:  cpu time    2.9255: real time    2.9368
    --------------------------------------------
      LOOP:  cpu time  168.9362: real time  169.5875

 eigenvalue-minimisations  :     0
 total energy-change (2. order) :-0.1295432E+03  (-0.1070816E+03)
 number of electron      32.0000000 magnetization 
 augmentation part        0.1850820 magnetization 

 Free energy of the ion-electron system (eV)
  ---------------------------------------------------
  alpha Z        PSCENC =         0.07114325
  Ewald energy   TEWEN  =      2553.17862249
  -Hartree energ DENC   =     -1354.08008873
  -exchange      EXHF   =       170.06583664
  -V(xc)+E(xc)   XCENC  =         0.00000000
  PAW double counting   =     10869.82924970   -10870.68254161
  entropy T*S    EENTRO =        -0.00000000
  eigenvalues    EBANDS =     -1796.75256151
  atomic energy  EATOM  =       796.25614934
  ---------------------------------------------------
  free energy    TOTEN  =       367.88580956 eV

  energy without entropy =      367.88580956  energy(sigma->0) =      367.88580956
  exchange ACFDT corr.  =        -0.00000000  see jH, gK, PRB 81, 115126


--------------------------------------------------------------------------------------------------------




----------------------------------------- Iteration    1(   8)  ---------------------------------------


    POTLOK:  cpu time   20.3546: real time   20.4105
    SETDIJ:  cpu time    0.2996: real time    0.3003
    TRIAL :  cpu time   66.7219: real time   66.9973
    CORREC:  cpu time   79.6141: real time   79.9253
    CHARGE:  cpu time    2.9240: real time    2.9352
    --------------------------------------------
      LOOP:  cpu time  169.9646: real time  170.6208

 eigenvalue-minimisations  :     0
 total energy-change (2. order) :-0.8388450E+02  (-0.9710432E+02)
 number of electron      32.0000000 magnetization 
 augmentation part        0.0803774 magnetization 

 Free energy of the ion-electron system (eV)
  ---------------------------------------------------
  alpha Z        PSCENC =         0.07114325
  Ewald energy   TEWEN  =      2553.17862249
  -Hartree energ DENC   =     -1570.11902180
  -exchange      EXHF   =       183.81723495
  -V(xc)+E(xc)   XCENC  =         0.00000000
  PAW double counting   =      6196.17971007    -6197.02903748
  entropy T*S    EENTRO =        -0.00000000
  eigenvalues    EBANDS =     -1678.35349111
  atomic energy  EATOM  =       796.25614934
  ---------------------------------------------------
  free energy    TOTEN  =       284.00130972 eV

  energy without entropy =      284.00130972  energy(sigma->0) =      284.00130972
  exchange ACFDT corr.  =         0.00000000  see jH, gK, PRB 81, 115126


--------------------------------------------------------------------------------------------------------




----------------------------------------- Iteration    1(   9)  ---------------------------------------


    POTLOK:  cpu time   20.3542: real time   20.4097
    SETDIJ:  cpu time    0.2998: real time    0.3008
    TRIAL :  cpu time   66.6835: real time   66.9560
    CORREC:  cpu time   79.9158: real time   80.2265
    CHARGE:  cpu time    2.9254: real time    2.9366
    --------------------------------------------
      LOOP:  cpu time  170.2304: real time  170.8846

 eigenvalue-minimisations  :     0
 total energy-change (2. order) :-0.8442793E+02  (-0.9000497E+02)
 number of electron      32.0000000 magnetization 
 augmentation part        0.0810505 magnetization 

 Free energy of the ion-electron system (eV)
  ---------------------------------------------------
  alpha Z        PSCENC =         0.07114325
  Ewald energy   TEWEN  =      2553.17862249
  -Hartree energ DENC   =     -1859.76948163
  -exchange      EXHF   =       197.46051119
  -V(xc)+E(xc)   XCENC  =         0.00000000
  PAW double counting   =      2187.56660292    -2188.29118385
  entropy T*S    EENTRO =        -0.00000000
  eigenvalues    EBANDS =     -1486.89897952
  atomic energy  EATOM  =       796.25614934
  ---------------------------------------------------
  free energy    TOTEN  =       199.57338419 eV

  energy without entropy =      199.57338419  energy(sigma->0) =      199.57338419
  exchange ACFDT corr.  =         0.00000000  see jH, gK, PRB 81, 115126


--------------------------------------------------------------------------------------------------------




----------------------------------------- Iteration    1(  10)  ---------------------------------------


    POTLOK:  cpu time   20.3543: real time   20.4098
    SETDIJ:  cpu time    0.3028: real time    0.3035
    TRIAL :  cpu time   66.7072: real time   66.9807
    CORREC:  cpu time   79.9472: real time   80.2591
    CHARGE:  cpu time    2.9192: real time    2.9305
    --------------------------------------------
      LOOP:  cpu time  170.2847: real time  170.9407

 eigenvalue-minimisations  :     0
 total energy-change (2. order) :-0.4944979E+02  (-0.9057185E+02)
 number of electron      32.0000000 magnetization 
 augmentation part        0.1467808 magnetization 

 Free energy of the ion-electron system (eV)
  ---------------------------------------------------
  alpha Z        PSCENC =         0.07114325
  Ewald energy   TEWEN  =      2553.17862249
  -Hartree energ DENC   =     -2083.23128544
  -exchange      EXHF   =       207.91869291
  -V(xc)+E(xc)   XCENC  =         0.00000000
  PAW double counting   =      2607.99509730    -2608.84138515
  entropy T*S    EENTRO =        -0.00000000
  eigenvalues    EBANDS =     -1323.22344307
  atomic energy  EATOM  =       796.25614934
  ---------------------------------------------------
  free energy    TOTEN  =       150.12359164 eV

  energy without entropy =      150.12359164  energy(sigma->0) =      150.12359164
  exchange ACFDT corr.  =        -0.00000000  see jH, gK, PRB 81, 115126


--------------------------------------------------------------------------------------------------------




----------------------------------------- Iteration    1(  11)  ---------------------------------------


    POTLOK:  cpu time   20.3700: real time   20.4256
    SETDIJ:  cpu time    0.3027: real time    0.3035
    TRIAL :  cpu time   66.7037: real time   66.9785
    CORREC:  cpu time   79.9996: real time   80.3120
    CHARGE:  cpu time    2.9264: real time    2.9378
    --------------------------------------------
      LOOP:  cpu time  170.3544: real time  171.0126

 eigenvalue-minimisations  :     0
 total energy-change (2. order) :-0.5586660E+02  (-0.5899564E+02)
 number of electron      32.0000000 magnetization 
 augmentation part        0.0996835 magnetization 

 Free energy of the ion-electron system (eV)
  ---------------------------------------------------
  alpha Z        PSCENC =         0.07114325
  Ewald energy   TEWEN  =      2553.17862249
  -Hartree energ DENC   =     -2303.52363795
  -exchange      EXHF   =       219.29706179
  -V(xc)+E(xc)   XCENC  =         0.00000000
  PAW double counting   =      5306.19329979    -5307.29902334
  entropy T*S    EENTRO =        -0.00000000
  eigenvalues    EBANDS =     -1169.91662362
  atomic energy  EATOM  =       796.25614934
  ---------------------------------------------------
  free energy    TOTEN  =        94.25699176 eV

  energy without entropy =       94.25699176  energy(sigma->0) =       94.25699176
  exchange ACFDT corr.  =         0.00000000  see jH, gK, PRB 81, 115126


--------------------------------------------------------------------------------------------------------




----------------------------------------- Iteration    1(  12)  ---------------------------------------


    POTLOK:  cpu time   20.3693: real time   20.4249
    SETDIJ:  cpu time    0.3004: real time    0.3011
    TRIAL :  cpu time   66.6227: real time   66.8965
    CORREC:  cpu time   79.9227: real time   80.2313
    CHARGE:  cpu time    2.9245: real time    2.9352
    --------------------------------------------
      LOOP:  cpu time  170.1943: real time  170.8466

 eigenvalue-minimisations  :     0
 total energy-change (2. order) :-0.5065370E+02  (-0.4156581E+02)
 number of electron      32.0000000 magnetization 
 augmentation part        0.0309603 magnetization 

 Free energy of the ion-electron system (eV)
  ---------------------------------------------------
  alpha Z        PSCENC =         0.07114325
  Ewald energy   TEWEN  =      2553.17862249
  -Hartree energ DENC   =     -2483.07298816
  -exchange      EXHF   =       229.26643993
  -V(xc)+E(xc)   XCENC  =         0.00000000
  PAW double counting   =      3445.36279533    -3446.33082287
  entropy T*S    EENTRO =        -0.00000000
  eigenvalues    EBANDS =     -1051.12804278
  atomic energy  EATOM  =       796.25614934
  ---------------------------------------------------
  free energy    TOTEN  =        43.60329653 eV

  energy without entropy =       43.60329653  energy(sigma->0) =       43.60329653
  exchange ACFDT corr.  =        -0.00000000  see jH, gK, PRB 81, 115126


--------------------------------------------------------------------------------------------------------




----------------------------------------- Iteration    1(  13)  ---------------------------------------


    POTLOK:  cpu time   20.3683: real time   20.4239
    SETDIJ:  cpu time    0.3041: real time    0.3049
    TRIAL :  cpu time   66.6319: real time   66.9066
    CORREC:  cpu time   79.8379: real time   80.1485
    CHARGE:  cpu time    2.9229: real time    2.9341
    --------------------------------------------
      LOOP:  cpu time  170.1165: real time  170.7727

 eigenvalue-minimisations  :     0
 total energy-change (2. order) :-0.4338892E+02  (-0.3184531E+02)
 number of electron      32.0000000 magnetization 
 augmentation part        0.1053948 magnetization 

 Free energy of the ion-electron system (eV)
  ---------------------------------------------------
  alpha Z        PSCENC =         0.07114325
  Ewald energy   TEWEN  =      2553.17862249
  -Hartree energ DENC   =     -2655.16644510
  -exchange      EXHF   =       241.11880150
  -V(xc)+E(xc)   XCENC  =         0.00000000
  PAW double counting   =      1644.70355697    -1645.45213435
  entropy T*S    EENTRO =        -0.00000000
  eigenvalues    EBANDS =      -934.49531258
  atomic energy  EATOM  =       796.25614934
  ---------------------------------------------------
  free energy    TOTEN  =         0.21438152 eV

  energy without entropy =        0.21438152  energy(sigma->0) =        0.21438152
  exchange ACFDT corr.  =         0.00000000  see jH, gK, PRB 81, 115126


--------------------------------------------------------------------------------------------------------




----------------------------------------- Iteration    1(  14)  ---------------------------------------


    POTLOK:  cpu time   20.3710: real time   20.4267
    SETDIJ:  cpu time    0.2998: real time    0.3005
    TRIAL :  cpu time   66.7678: real time   67.0398
    CORREC:  cpu time   79.6892: real time   79.9999
    CHARGE:  cpu time    2.9222: real time    2.9334
    --------------------------------------------
      LOOP:  cpu time  170.1002: real time  170.7535

 eigenvalue-minimisations  :     0
 total energy-change (2. order) :-0.3348783E+02  (-0.3717182E+02)
 number of electron      32.0000000 magnetization 
 augmentation part        0.1154832 magnetization 

 Free energy of the ion-electron system (eV)
  ---------------------------------------------------
  alpha Z        PSCENC =         0.07114325
  Ewald energy   TEWEN  =      2553.17862249
  -Hartree energ DENC   =     -2815.38666093
  -exchange      EXHF   =       256.11404538
  -V(xc)+E(xc)   XCENC  =         0.00000000
  PAW double counting   =      3113.77679589    -3114.67628905
  entropy T*S    EENTRO =        -0.00000000
  eigenvalues    EBANDS =      -822.60725216
  atomic energy  EATOM  =       796.25614934
  ---------------------------------------------------
  free energy    TOTEN  =       -33.27344577 eV

  energy without entropy =      -33.27344577  energy(sigma->0) =      -33.27344577
  exchange ACFDT corr.  =         0.00000000  see jH, gK, PRB 81, 115126


--------------------------------------------------------------------------------------------------------




----------------------------------------- Iteration    1(  15)  ---------------------------------------


    POTLOK:  cpu time   20.3736: real time   20.4287
    SETDIJ:  cpu time    0.3000: real time    0.3011
    TRIAL :  cpu time   66.6615: real time   66.9360
    CORREC:  cpu time   79.5260: real time   79.8377
    CHARGE:  cpu time    2.9255: real time    2.9367
    --------------------------------------------
      LOOP:  cpu time  169.8382: real time  170.4947

 eigenvalue-minimisations  :     0
 total energy-change (2. order) :-0.4102801E+02  (-0.1869081E+02)
 number of electron      32.0000000 magnetization 
 augmentation part        0.0877175 magnetization 

 Free energy of the ion-electron system (eV)
  ---------------------------------------------------
  alpha Z        PSCENC =         0.07114325
  Ewald energy   TEWEN  =      2553.17862249
  -Hartree energ DENC   =     -3024.41039396
  -exchange      EXHF   =       281.59237000
  -V(xc)+E(xc)   XCENC  =         0.00000000
  PAW double counting   =      2632.12340273    -2632.99212648
  entropy T*S    EENTRO =        -0.00000000
  eigenvalues    EBANDS =      -680.12062681
  atomic energy  EATOM  =       796.25614934
  ---------------------------------------------------
  free energy    TOTEN  =       -74.30145943 eV

  energy without entropy =      -74.30145943  energy(sigma->0) =      -74.30145943
  exchange ACFDT corr.  =         0.00000000  see jH, gK, PRB 81, 115126


--------------------------------------------------------------------------------------------------------




----------------------------------------- Iteration    1(  16)  ---------------------------------------


    POTLOK:  cpu time   20.4102: real time   20.4659
    SETDIJ:  cpu time    0.2998: real time    0.3005
    TRIAL :  cpu time   66.6667: real time   66.9422
    CORREC:  cpu time   79.6612: real time   79.9726
    CHARGE:  cpu time    2.9125: real time    2.9237
    --------------------------------------------
      LOOP:  cpu time  170.0007: real time  170.6583

 eigenvalue-minimisations  :     0
 total energy-change (2. order) :-0.2079126E+02  (-0.1447672E+02)
 number of electron      32.0000000 magnetization 
 augmentation part        0.1805790 magnetization 

 Free energy of the ion-electron system (eV)
  ---------------------------------------------------
  alpha Z        PSCENC =         0.07114325
  Ewald energy   TEWEN  =      2553.17862249
  -Hartree energ DENC   =     -3106.32190319
  -exchange      EXHF   =       295.26735262
  -V(xc)+E(xc)   XCENC  =         0.00000000
  PAW double counting   =      1593.89206393    -1594.65316955
  entropy T*S    EENTRO =        -0.00000000
  eigenvalues    EBANDS =      -632.78298245
  atomic energy  EATOM  =       796.25614934
  ---------------------------------------------------
  free energy    TOTEN  =       -95.09272356 eV

  energy without entropy =      -95.09272356  energy(sigma->0) =      -95.09272356
  exchange ACFDT corr.  =         0.00000000  see jH, gK, PRB 81, 115126


--------------------------------------------------------------------------------------------------------




----------------------------------------- Iteration    1(  17)  ---------------------------------------


    POTLOK:  cpu time   20.4312: real time   20.4872
    SETDIJ:  cpu time    0.2994: real time    0.3001
    TRIAL :  cpu time   66.9043: real time   67.1796
    CORREC:  cpu time   79.6529: real time   79.9632
    CHARGE:  cpu time    2.9195: real time    2.9309
    --------------------------------------------
      LOOP:  cpu time  170.2438: real time  170.9002

 eigenvalue-minimisations  :     0
 total energy-change (2. order) :-0.2103663E+02  (-0.2179843E+02)
 number of electron      32.0000000 magnetization 
 augmentation part        0.0369661 magnetization 

 Free energy of the ion-electron system (eV)
  ---------------------------------------------------
  alpha Z        PSCENC =         0.07114325
  Ewald energy   TEWEN  =      2553.17862249
  -Hartree energ DENC   =     -3164.80797346
  -exchange      EXHF   =       308.48471595
  -V(xc)+E(xc)   XCENC  =         0.00000000
  PAW double counting   =      3184.08667033    -3185.02589655
  entropy T*S    EENTRO =        -0.00000000
  eigenvalues    EBANDS =      -608.37278637
  atomic energy  EATOM  =       796.25614934
  ---------------------------------------------------
  free energy    TOTEN  =      -116.12935501 eV

  energy without entropy =     -116.12935501  energy(sigma->0) =     -116.12935501
  exchange ACFDT corr.  =         0.00000000  see jH, gK, PRB 81, 115126


--------------------------------------------------------------------------------------------------------




----------------------------------------- Iteration    1(  18)  ---------------------------------------


    POTLOK:  cpu time   20.4459: real time   20.5020
    SETDIJ:  cpu time    0.3006: real time    0.3014
    TRIAL :  cpu time   66.7239: real time   66.9994
    CORREC:  cpu time   79.8146: real time   80.1239
    CHARGE:  cpu time    2.9123: real time    2.9236
    --------------------------------------------
      LOOP:  cpu time  170.2331: real time  170.8877

 eigenvalue-minimisations  :     0
 total energy-change (2. order) :-0.1756769E+02  (-0.7703813E+01)
 number of electron      32.0000000 magnetization 
 augmentation part        0.1611425 magnetization 

 Free energy of the ion-electron system (eV)
  ---------------------------------------------------
  alpha Z        PSCENC =         0.07114325
  Ewald energy   TEWEN  =      2553.17862249
  -Hartree energ DENC   =     -3229.19597567
  -exchange      EXHF   =       323.08935324
  -V(xc)+E(xc)   XCENC  =         0.00000000
  PAW double counting   =      1362.67804858    -1363.28531374
  entropy T*S    EENTRO =        -0.00000000
  eigenvalues    EBANDS =      -576.48906901
  atomic energy  EATOM  =       796.25614934
  ---------------------------------------------------
  free energy    TOTEN  =      -133.69704152 eV

  energy without entropy =     -133.69704152  energy(sigma->0) =     -133.69704152
  exchange ACFDT corr.  =         0.00000000  see jH, gK, PRB 81, 115126


--------------------------------------------------------------------------------------------------------




----------------------------------------- Iteration    1(  19)  ---------------------------------------


    POTLOK:  cpu time   20.4462: real time   20.5019
    SETDIJ:  cpu time    0.3001: real time    0.3011
    TRIAL :  cpu time   67.0456: real time   67.3202
    CORREC:  cpu time   79.8358: real time   80.1460
    CHARGE:  cpu time    2.9117: real time    2.9231
    --------------------------------------------
      LOOP:  cpu time  170.5768: real time  171.2326

 eigenvalue-minimisations  :     0
 total energy-change (2. order) :-0.7470979E+01  (-0.2163524E+01)
 number of electron      32.0000000 magnetization 
 augmentation part        0.1850256 magnetization 

 Free energy of the ion-electron system (eV)
  ---------------------------------------------------
  alpha Z        PSCENC =         0.07114325
  Ewald energy   TEWEN  =      2553.17862249
  -Hartree energ DENC   =     -3237.71769646
  -exchange      EXHF   =       324.80086736
  -V(xc)+E(xc)   XCENC  =         0.00000000
  PAW double counting   =      2163.72835254    -2164.57520842
  entropy T*S    EENTRO =        -0.00000000
  eigenvalues    EBANDS =      -576.91025069
  atomic energy  EATOM  =       796.25614934
  ---------------------------------------------------
  free energy    TOTEN  =      -141.16802059 eV

  energy without entropy =     -141.16802059  energy(sigma->0) =     -141.16802059
  exchange ACFDT corr.  =        -0.00000000  see jH, gK, PRB 81, 115126


--------------------------------------------------------------------------------------------------------




----------------------------------------- Iteration    1(  20)  ---------------------------------------


    POTLOK:  cpu time   20.4440: real time   20.5001
    SETDIJ:  cpu time    0.2996: real time    0.3004
    TRIAL :  cpu time   66.9726: real time   67.2469
    CORREC:  cpu time   80.0783: real time   80.3895
    CHARGE:  cpu time    2.9141: real time    2.9255
    --------------------------------------------
      LOOP:  cpu time  170.7464: real time  171.4030

 eigenvalue-minimisations  :     0
 total energy-change (2. order) :-0.2176374E+01  (-0.1658192E+01)
 number of electron      32.0000000 magnetization 
 augmentation part        0.1597636 magnetization 

 Free energy of the ion-electron system (eV)
  ---------------------------------------------------
  alpha Z        PSCENC =         0.07114325
  Ewald energy   TEWEN  =      2553.17862249
  -Hartree energ DENC   =     -3248.67167061
  -exchange      EXHF   =       326.51171822
  -V(xc)+E(xc)   XCENC  =         0.00000000
  PAW double counting   =      2197.31423332    -2198.20428442
  entropy T*S    EENTRO =        -0.00000000
  eigenvalues    EBANDS =      -569.80030659
  atomic energy  EATOM  =       796.25614934
  ---------------------------------------------------
  free energy    TOTEN  =      -143.34439500 eV

  energy without entropy =     -143.34439500  energy(sigma->0) =     -143.34439500
  exchange ACFDT corr.  =         0.00000000  see jH, gK, PRB 81, 115126


--------------------------------------------------------------------------------------------------------




----------------------------------------- Iteration    1(  21)  ---------------------------------------


    POTLOK:  cpu time   20.4542: real time   20.5097
    SETDIJ:  cpu time    0.3011: real time    0.3019
    TRIAL :  cpu time   66.8001: real time   67.0737
    CORREC:  cpu time   79.9687: real time   80.2793
    CHARGE:  cpu time    2.9292: real time    2.9406
    --------------------------------------------
      LOOP:  cpu time  170.4898: real time  171.1443

 eigenvalue-minimisations  :     0
 total energy-change (2. order) :-0.1671489E+01  (-0.5363945E+00)
 number of electron      32.0000000 magnetization 
 augmentation part        0.1712208 magnetization 

 Free energy of the ion-electron system (eV)
  ---------------------------------------------------
  alpha Z        PSCENC =         0.07114325
  Ewald energy   TEWEN  =      2553.17862249
  -Hartree energ DENC   =     -3249.13074837
  -exchange      EXHF   =       327.45635502
  -V(xc)+E(xc)   XCENC  =         0.00000000
  PAW double counting   =      1571.12808373    -1571.94057152
  entropy T*S    EENTRO =        -0.00000000
  eigenvalues    EBANDS =      -572.03491756
  atomic energy  EATOM  =       796.25614934
  ---------------------------------------------------
  free energy    TOTEN  =      -145.01588363 eV

  energy without entropy =     -145.01588363  energy(sigma->0) =     -145.01588363
  exchange ACFDT corr.  =         0.00000000  see jH, gK, PRB 81, 115126


--------------------------------------------------------------------------------------------------------




----------------------------------------- Iteration    1(  22)  ---------------------------------------


    POTLOK:  cpu time   20.4388: real time   20.4943
    SETDIJ:  cpu time    0.3023: real time    0.3033
    TRIAL :  cpu time   66.6971: real time   66.9730
    CORREC:  cpu time   79.6722: real time   79.9817
    CHARGE:  cpu time    2.9175: real time    2.9284
    --------------------------------------------
      LOOP:  cpu time  170.0619: real time  170.7177

 eigenvalue-minimisations  :     0
 total energy-change (2. order) :-0.5428205E+00  (-0.4294811E+00)
 number of electron      32.0000000 magnetization 
 augmentation part        0.1749934 magnetization 

 Free energy of the ion-electron system (eV)
  ---------------------------------------------------
  alpha Z        PSCENC =         0.07114325
  Ewald energy   TEWEN  =      2553.17862249
  -Hartree energ DENC   =     -3252.09989337
  -exchange      EXHF   =       328.01835154
  -V(xc)+E(xc)   XCENC  =         0.00000000
  PAW double counting   =      1745.19866460    -1746.03147060
  entropy T*S    EENTRO =        -0.00000000
  eigenvalues    EBANDS =      -570.15027139
  atomic energy  EATOM  =       796.25614934
  ---------------------------------------------------
  free energy    TOTEN  =      -145.55870413 eV

  energy without entropy =     -145.55870413  energy(sigma->0) =     -145.55870413
  exchange ACFDT corr.  =         0.00000000  see jH, gK, PRB 81, 115126


--------------------------------------------------------------------------------------------------------




----------------------------------------- Iteration    1(  23)  ---------------------------------------


    POTLOK:  cpu time   20.4476: real time   20.4973
    SETDIJ:  cpu time    0.3013: real time    0.3020
    TRIAL :  cpu time   66.5808: real time   66.8541
    CORREC:  cpu time   79.8693: real time   80.1780
    CHARGE:  cpu time    2.9203: real time    2.9317
    --------------------------------------------
      LOOP:  cpu time  170.1593: real time  170.8060

 eigenvalue-minimisations  :     0
 total energy-change (2. order) :-0.4351585E+00  (-0.1240038E+00)
 number of electron      32.0000000 magnetization 
 augmentation part        0.1696244 magnetization 

 Free energy of the ion-electron system (eV)
  ---------------------------------------------------
  alpha Z        PSCENC =         0.07114325
  Ewald energy   TEWEN  =      2553.17862249
  -Hartree energ DENC   =     -3254.86839985
  -exchange      EXHF   =       328.47571190
  -V(xc)+E(xc)   XCENC  =         0.00000000
  PAW double counting   =      1616.49577066    -1617.32877509
  entropy T*S    EENTRO =        -0.00000000
  eigenvalues    EBANDS =      -568.27408530
  atomic energy  EATOM  =       796.25614934
  ---------------------------------------------------
  free energy    TOTEN  =      -145.99386260 eV

  energy without entropy =     -145.99386260  energy(sigma->0) =     -145.99386260
  exchange ACFDT corr.  =         0.00000000  see jH, gK, PRB 81, 115126


--------------------------------------------------------------------------------------------------------




----------------------------------------- Iteration    1(  24)  ---------------------------------------


    POTLOK:  cpu time   20.4483: real time   20.5044
    SETDIJ:  cpu time    0.3000: real time    0.3007
    TRIAL :  cpu time   66.7361: real time   67.0119
    CORREC:  cpu time   80.1582: real time   80.4700
    CHARGE:  cpu time    2.9147: real time    2.9258
    --------------------------------------------
      LOOP:  cpu time  170.5940: real time  171.2519

 eigenvalue-minimisations  :     0
 total energy-change (2. order) :-0.1247987E+00  (-0.8910160E-01)
 number of electron      32.0000000 magnetization 
 augmentation part        0.1689429 magnetization 

 Free energy of the ion-electron system (eV)
  ---------------------------------------------------
  alpha Z        PSCENC =         0.07114325
  Ewald energy   TEWEN  =      2553.17862249
  -Hartree energ DENC   =     -3255.18325881
  -exchange      EXHF   =       328.54236792
  -V(xc)+E(xc)   XCENC  =         0.00000000
  PAW double counting   =      1550.66530072    -1551.48394316
  entropy T*S    EENTRO =        -0.00000000
  eigenvalues    EBANDS =      -568.16504307
  atomic energy  EATOM  =       796.25614934
  ---------------------------------------------------
  free energy    TOTEN  =      -146.11866132 eV

  energy without entropy =     -146.11866132  energy(sigma->0) =     -146.11866132
  exchange ACFDT corr.  =        -0.00000000  see jH, gK, PRB 81, 115126


--------------------------------------------------------------------------------------------------------




----------------------------------------- Iteration    1(  25)  ---------------------------------------


    POTLOK:  cpu time   20.4491: real time   20.5046
    SETDIJ:  cpu time    0.3032: real time    0.3039
    TRIAL :  cpu time   66.6471: real time   66.9219
    CORREC:  cpu time   79.8872: real time   80.1971
    CHARGE:  cpu time    2.9243: real time    2.9355
    --------------------------------------------
      LOOP:  cpu time  170.2462: real time  170.9016

 eigenvalue-minimisations  :     0
 total energy-change (2. order) :-0.8982707E-01  (-0.1900621E-01)
 number of electron      32.0000000 magnetization 
 augmentation part        0.1708592 magnetization 

 Free energy of the ion-electron system (eV)
  ---------------------------------------------------
  alpha Z        PSCENC =         0.07114325
  Ewald energy   TEWEN  =      2553.17862249
  -Hartree energ DENC   =     -3255.21413393
  -exchange      EXHF   =       328.51188255
  -V(xc)+E(xc)   XCENC  =         0.00000000
  PAW double counting   =      1508.11491092    -1508.93006788
  entropy T*S    EENTRO =        -0.00000000
  eigenvalues    EBANDS =      -568.19699512
  atomic energy  EATOM  =       796.25614934
  ---------------------------------------------------
  free energy    TOTEN  =      -146.20848839 eV

  energy without entropy =     -146.20848839  energy(sigma->0) =     -146.20848839
  exchange ACFDT corr.  =         0.00000000  see jH, gK, PRB 81, 115126


--------------------------------------------------------------------------------------------------------




----------------------------------------- Iteration    1(  26)  ---------------------------------------


    POTLOK:  cpu time   20.4509: real time   20.5070
    SETDIJ:  cpu time    0.3033: real time    0.3041
    TRIAL :  cpu time   66.7417: real time   67.0173
    CORREC:  cpu time   79.9844: real time   80.2973
    CHARGE:  cpu time    2.9131: real time    2.9241
    --------------------------------------------
      LOOP:  cpu time  170.4285: real time  171.0877

 eigenvalue-minimisations  :     0
 total energy-change (2. order) :-0.1901054E-01  (-0.1984803E-01)
 number of electron      32.0000000 magnetization 
 augmentation part        0.1677599 magnetization 

 Free energy of the ion-electron system (eV)
  ---------------------------------------------------
  alpha Z        PSCENC =         0.07114325
  Ewald energy   TEWEN  =      2553.17862249
  -Hartree energ DENC   =     -3255.25129338
  -exchange      EXHF   =       328.48601969
  -V(xc)+E(xc)   XCENC  =         0.00000000
  PAW double counting   =      1511.54434590    -1512.36353828
  entropy T*S    EENTRO =        -0.00000000
  eigenvalues    EBANDS =      -568.14894794
  atomic energy  EATOM  =       796.25614934
  ---------------------------------------------------
  free energy    TOTEN  =      -146.22749892 eV

  energy without entropy =     -146.22749892  energy(sigma->0) =     -146.22749892
  exchange ACFDT corr.  =        -0.00000000  see jH, gK, PRB 81, 115126


--------------------------------------------------------------------------------------------------------




----------------------------------------- Iteration    1(  27)  ---------------------------------------


    POTLOK:  cpu time   20.4359: real time   20.4917
    SETDIJ:  cpu time    0.3014: real time    0.3022
    TRIAL :  cpu time   66.6571: real time   66.9336
    CORREC:  cpu time   79.9864: real time   80.2980
    CHARGE:  cpu time    2.9205: real time    2.9314
    --------------------------------------------
      LOOP:  cpu time  170.3384: real time  170.9974

 eigenvalue-minimisations  :     0
 total energy-change (2. order) :-0.1986950E-01  (-0.6153666E-02)
 number of electron      32.0000000 magnetization 
 augmentation part        0.1654427 magnetization 

 Free energy of the ion-electron system (eV)
  ---------------------------------------------------
  alpha Z        PSCENC =         0.07114325
  Ewald energy   TEWEN  =      2553.17862249
  -Hartree energ DENC   =     -3254.93470495
  -exchange      EXHF   =       328.44893679
  -V(xc)+E(xc)   XCENC  =         0.00000000
  PAW double counting   =      1471.76133280    -1472.57397720
  entropy T*S    EENTRO =        -0.00000000
  eigenvalues    EBANDS =      -568.45487095
  atomic energy  EATOM  =       796.25614934
  ---------------------------------------------------
  free energy    TOTEN  =      -146.24736842 eV

  energy without entropy =     -146.24736842  energy(sigma->0) =     -146.24736842
  exchange ACFDT corr.  =        -0.00000000  see jH, gK, PRB 81, 115126


--------------------------------------------------------------------------------------------------------




----------------------------------------- Iteration    1(  28)  ---------------------------------------


    POTLOK:  cpu time   20.4405: real time   20.4966
    SETDIJ:  cpu time    0.3007: real time    0.3014
    TRIAL :  cpu time   66.9330: real time   67.2103
    CORREC:  cpu time   79.6412: real time   79.9514
    CHARGE:  cpu time    2.9081: real time    2.9195
    --------------------------------------------
      LOOP:  cpu time  170.2591: real time  170.9174

 eigenvalue-minimisations  :     0
 total energy-change (2. order) :-0.6156661E-02  (-0.4781510E-02)
 number of electron      32.0000000 magnetization 
 augmentation part        0.1644138 magnetization 

 Free energy of the ion-electron system (eV)
  ---------------------------------------------------
  alpha Z        PSCENC =         0.07114325
  Ewald energy   TEWEN  =      2553.17862249
  -Hartree energ DENC   =     -3254.96600657
  -exchange      EXHF   =       328.45837435
  -V(xc)+E(xc)   XCENC  =         0.00000000
  PAW double counting   =      1423.53050213    -1424.33833165
  entropy T*S    EENTRO =        -0.00000000
  eigenvalues    EBANDS =      -568.44397844
  atomic energy  EATOM  =       796.25614934
  ---------------------------------------------------
  free energy    TOTEN  =      -146.25352509 eV

  energy without entropy =     -146.25352509  energy(sigma->0) =     -146.25352509
  exchange ACFDT corr.  =         0.00000000  see jH, gK, PRB 81, 115126


--------------------------------------------------------------------------------------------------------




----------------------------------------- Iteration    1(  29)  ---------------------------------------


    POTLOK:  cpu time   20.2342: real time   20.2897
    SETDIJ:  cpu time    0.3003: real time    0.3010
    TRIAL :  cpu time   66.8501: real time   67.1262
    CORREC:  cpu time   79.5485: real time   79.8593
    CHARGE:  cpu time    2.9144: real time    2.9260
    --------------------------------------------
      LOOP:  cpu time  169.8843: real time  170.5414

 eigenvalue-minimisations  :     0
 total energy-change (2. order) :-0.4772114E-02  (-0.3200279E-02)
 number of electron      32.0000000 magnetization 
 augmentation part        0.1620912 magnetization 

 Free energy of the ion-electron system (eV)
  ---------------------------------------------------
  alpha Z        PSCENC =         0.07114325
  Ewald energy   TEWEN  =      2553.17862249
  -Hartree energ DENC   =     -3255.33890074
  -exchange      EXHF   =       328.50193280
  -V(xc)+E(xc)   XCENC  =         0.00000000
  PAW double counting   =      1397.36168169    -1398.16891473
  entropy T*S    EENTRO =        -0.00000000
  eigenvalues    EBANDS =      -568.12001131
  atomic energy  EATOM  =       796.25614934
  ---------------------------------------------------
  free energy    TOTEN  =      -146.25829720 eV

  energy without entropy =     -146.25829720  energy(sigma->0) =     -146.25829720
  exchange ACFDT corr.  =         0.00000000  see jH, gK, PRB 81, 115126


--------------------------------------------------------------------------------------------------------




----------------------------------------- Iteration    1(  30)  ---------------------------------------


    POTLOK:  cpu time   20.3314: real time   20.3869
    SETDIJ:  cpu time    0.2992: real time    0.3002
    TRIAL :  cpu time   67.1830: real time   67.4697
    CORREC:  cpu time   79.5599: real time   79.8706
    CHARGE:  cpu time    2.9157: real time    2.9272
    --------------------------------------------
      LOOP:  cpu time  170.3272: real time  170.9954

 eigenvalue-minimisations  :     0
 total energy-change (2. order) :-0.3199839E-02  (-0.3253604E-02)
 number of electron      32.0000000 magnetization 
 augmentation part        0.1575707 magnetization 

 Free energy of the ion-electron system (eV)
  ---------------------------------------------------
  alpha Z        PSCENC =         0.07114325
  Ewald energy   TEWEN  =      2553.17862249
  -Hartree energ DENC   =     -3255.51279533
  -exchange      EXHF   =       328.53234413
  -V(xc)+E(xc)   XCENC  =         0.00000000
  PAW double counting   =      1365.73405329    -1366.53799792
  entropy T*S    EENTRO =        -0.00000000
  eigenvalues    EBANDS =      -567.98301629
  atomic energy  EATOM  =       796.25614934
  ---------------------------------------------------
  free energy    TOTEN  =      -146.26149704 eV

  energy without entropy =     -146.26149704  energy(sigma->0) =     -146.26149704
  exchange ACFDT corr.  =         0.00000000  see jH, gK, PRB 81, 115126


--------------------------------------------------------------------------------------------------------




----------------------------------------- Iteration    1(  31)  ---------------------------------------


    POTLOK:  cpu time   20.3342: real time   20.3897
    SETDIJ:  cpu time    0.3003: real time    0.3013
    TRIAL :  cpu time   66.8814: real time   67.1567
    CORREC:  cpu time   79.8096: real time   80.1194
    CHARGE:  cpu time    2.9222: real time    2.9336
    --------------------------------------------
      LOOP:  cpu time  170.2828: real time  170.9381

 eigenvalue-minimisations  :     0
 total energy-change (2. order) :-0.3246292E-02  (-0.4498073E-02)
 number of electron      32.0000000 magnetization 
 augmentation part        0.1525663 magnetization 

 Free energy of the ion-electron system (eV)
  ---------------------------------------------------
  alpha Z        PSCENC =         0.07114325
  Ewald energy   TEWEN  =      2553.17862249
  -Hartree energ DENC   =     -3255.44314446
  -exchange      EXHF   =       328.54841575
  -V(xc)+E(xc)   XCENC  =         0.00000000
  PAW double counting   =      1301.31975535    -1302.11659559
  entropy T*S    EENTRO =        -0.00000000
  eigenvalues    EBANDS =      -568.07908946
  atomic energy  EATOM  =       796.25614934
  ---------------------------------------------------
  free energy    TOTEN  =      -146.26474333 eV

  energy without entropy =     -146.26474333  energy(sigma->0) =     -146.26474333
  exchange ACFDT corr.  =         0.00000000  see jH, gK, PRB 81, 115126


--------------------------------------------------------------------------------------------------------




----------------------------------------- Iteration    1(  32)  ---------------------------------------


    POTLOK:  cpu time   20.4335: real time   20.4892
    SETDIJ:  cpu time    0.3005: real time    0.3016
    TRIAL :  cpu time   66.6646: real time   66.9390
    CORREC:  cpu time   79.8218: real time   80.1338
    CHARGE:  cpu time    2.9112: real time    2.9224
    --------------------------------------------
      LOOP:  cpu time  170.1657: real time  170.8226

 eigenvalue-minimisations  :     0
 total energy-change (2. order) :-0.4486338E-02  (-0.2840682E-02)
 number of electron      32.0000000 magnetization 
 augmentation part        0.1501977 magnetization 

 Free energy of the ion-electron system (eV)
  ---------------------------------------------------
  alpha Z        PSCENC =         0.07114325
  Ewald energy   TEWEN  =      2553.17862249
  -Hartree energ DENC   =     -3255.28300455
  -exchange      EXHF   =       328.55710177
  -V(xc)+E(xc)   XCENC  =         0.00000000
  PAW double counting   =      1225.74640408    -1226.53707904
  entropy T*S    EENTRO =        -0.00000000
  eigenvalues    EBANDS =      -568.25856700
  atomic energy  EATOM  =       796.25614934
  ---------------------------------------------------
  free energy    TOTEN  =      -146.26922967 eV

  energy without entropy =     -146.26922967  energy(sigma->0) =     -146.26922967
  exchange ACFDT corr.  =         0.00000000  see jH, gK, PRB 81, 115126


--------------------------------------------------------------------------------------------------------




----------------------------------------- Iteration    1(  33)  ---------------------------------------


    POTLOK:  cpu time   20.4331: real time   20.4889
    SETDIJ:  cpu time    0.2972: real time    0.2983
    TRIAL :  cpu time   66.7562: real time   67.0299
    CORREC:  cpu time   79.8792: real time   80.1891
    CHARGE:  cpu time    2.9153: real time    2.9263
    --------------------------------------------
      LOOP:  cpu time  170.3214: real time  170.9752

 eigenvalue-minimisations  :     0
 total energy-change (2. order) :-0.2851825E-02  (-0.4204489E-02)
 number of electron      32.0000000 magnetization 
 augmentation part        0.1438941 magnetization 

 Free energy of the ion-electron system (eV)
  ---------------------------------------------------
  alpha Z        PSCENC =         0.07114325
  Ewald energy   TEWEN  =      2553.17862249
  -Hartree energ DENC   =     -3255.26750830
  -exchange      EXHF   =       328.56434962
  -V(xc)+E(xc)   XCENC  =         0.00000000
  PAW double counting   =      1194.88174594    -1195.67106801
  entropy T*S    EENTRO =        -0.00000000
  eigenvalues    EBANDS =      -568.28551582
  atomic energy  EATOM  =       796.25614934
  ---------------------------------------------------
  free energy    TOTEN  =      -146.27208149 eV

  energy without entropy =     -146.27208149  energy(sigma->0) =     -146.27208149
  exchange ACFDT corr.  =         0.00000000  see jH, gK, PRB 81, 115126


--------------------------------------------------------------------------------------------------------




----------------------------------------- Iteration    1(  34)  ---------------------------------------


    POTLOK:  cpu time   20.4015: real time   20.4572
    SETDIJ:  cpu time    0.2964: real time    0.2971
    TRIAL :  cpu time   66.7334: real time   67.0062
    CORREC:  cpu time   79.6603: real time   79.9655
    CHARGE:  cpu time    2.9167: real time    2.9281
    --------------------------------------------
      LOOP:  cpu time  170.0474: real time  170.6956

 eigenvalue-minimisations  :     0
 total energy-change (2. order) :-0.4264643E-02  (-0.2556547E-02)
 number of electron      32.0000000 magnetization 
 augmentation part        0.1385531 magnetization 

 Free energy of the ion-electron system (eV)
  ---------------------------------------------------
  alpha Z        PSCENC =         0.07114325
  Ewald energy   TEWEN  =      2553.17862249
  -Hartree energ DENC   =     -3255.32631904
  -exchange      EXHF   =       328.58906251
  -V(xc)+E(xc)   XCENC  =         0.00000000
  PAW double counting   =      1118.65898343    -1119.44080295
  entropy T*S    EENTRO =        -0.00000000
  eigenvalues    EBANDS =      -568.26318517
  atomic energy  EATOM  =       796.25614934
  ---------------------------------------------------
  free energy    TOTEN  =      -146.27634614 eV

  energy without entropy =     -146.27634614  energy(sigma->0) =     -146.27634614
  exchange ACFDT corr.  =         0.00000000  see jH, gK, PRB 81, 115126


[...]
----------------------------------------- Iteration    1(  60)  ---------------------------------------


    POTLOK:  cpu time   18.6698: real time   18.7207
    SETDIJ:  cpu time    0.2979: real time    0.2986
    TRIAL :  cpu time   66.7566: real time   67.0296
    CORREC:  cpu time   77.9309: real time   78.2379
    CHARGE:  cpu time    2.9122: real time    2.9236
    --------------------------------------------
      LOOP:  cpu time  166.6026: real time  167.2484

 eigenvalue-minimisations  :     0
 total energy-change (2. order) :-0.7581802E-05  (-0.3619499E-05)
 number of electron      32.0000000 magnetization 
 augmentation part        0.1197754 magnetization 

 Free energy of the ion-electron system (eV)
  ---------------------------------------------------
  alpha Z        PSCENC =         0.07114325
  Ewald energy   TEWEN  =      2553.17862249
  -Hartree energ DENC   =     -3255.58996119
  -exchange      EXHF   =       328.68624519
  -V(xc)+E(xc)   XCENC  =         0.00000000
  PAW double counting   =       911.45337405     -912.20733856
  entropy T*S    EENTRO =        -0.00000000
  eigenvalues    EBANDS =      -568.13582757
  atomic energy  EATOM  =       796.25614934
  ---------------------------------------------------
  free energy    TOTEN  =      -146.28759300 eV

  energy without entropy =     -146.28759300  energy(sigma->0) =     -146.28759300
  exchange ACFDT corr.  =         0.00000000  see jH, gK, PRB 81, 115126


--------------------------------------------------------------------------------------------------------


  average scaling for gradient   0.1911


 average (electrostatic) potential at core
  the test charge radii are     0.5412  0.5531
  (the norm of the test charge is              1.0000)
       1 -90.1525       2 -89.6023       3 -89.6028       4 -89.6031       5 -89.6019
       6 -21.7598       7 -21.7594       8 -21.7597       9 -21.7599      10 -21.7602
      11 -21.7598      12 -21.7600      13 -21.7597      14 -21.7605      15 -21.7601
      16 -21.7604      17 -21.7603
 
 
 
 E-fermi : -12.1972     XC(G=0):   0.0000     alpha+bet : -0.0199


 k-point     1 :       0.0000    0.0000    0.0000
  band No.  band energies     occupation 
      1     -30.0817      2.00000
      2     -25.2498      2.00000
      3     -25.2496      2.00000
      4     -25.2469      2.00000
      5     -19.8452      2.00000
      6     -16.6355      2.00000
      7     -16.6355      2.00000
      8     -16.6239      2.00000
      9     -15.0298      2.00000
     10     -15.0296      2.00000
     11     -13.8465      2.00000
     12     -13.8440      2.00000
     13     -13.8441      2.00000
     14     -12.3031      2.00000
     15     -12.3029      2.00000
     16     -12.3002      2.00000
     17       0.0202      0.00000
     18       0.1377      0.00000
     19       0.1383      0.00000
     20       0.1439      0.00000
     21       0.1469      0.00000
     22       0.1516      0.00000
     23       0.1671      0.00000
     24       0.2736      0.00000
     25       0.2645      0.00000
     26       0.2679      0.00000
     27       0.2872      0.00000
     28       0.2828      0.00000


--------------------------------------------------------------------------------------------------------


 soft charge-density along one line, spin component           1
         0         1         2         3         4         5         6         7         8         9
 total charge-density along one line
 
 pseudopotential strength for first ion, spin component:           1
  9.976  -0.010  -0.044  -0.000   0.000   0.000  -0.000   0.000
 -0.010  -0.109   0.683  -0.000   0.000   0.000   0.000  -0.000
 -0.044   0.683   0.223  -0.000   0.000   0.000   0.000  -0.000
 -0.000  -0.000  -0.000  -3.753   0.000   0.000  -1.118  -0.000
  0.000   0.000   0.000   0.000  -3.753  -0.000  -0.000  -1.118
  0.000   0.000   0.000   0.000  -0.000  -3.753  -0.000   0.000
 -0.000   0.000   0.000  -1.118  -0.000  -0.000  27.860   0.000
  0.000  -0.000  -0.000  -0.000  -1.118   0.000   0.000  27.860
  0.000  -0.000  -0.000  -0.000   0.000  -1.118   0.000  -0.000
 -0.000  -0.000   0.000   0.875   0.000   0.000 -19.221  -0.000
  0.000   0.000   0.000   0.000   0.875  -0.000  -0.000 -19.221
 -0.000   0.000   0.000   0.000  -0.000   0.875  -0.000   0.000
 -0.000  -0.000  -0.000  -0.000  -0.000  -0.000  -0.002  -0.001
 -0.000  -0.000  -0.000  -0.000   0.000  -0.000  -0.003   0.000
 -0.000  -0.000  -0.000   0.000   0.000  -0.000   0.000   0.005
  0.000   0.000   0.000  -0.000  -0.000  -0.000  -0.001  -0.002
  0.000   0.000   0.000  -0.000   0.000   0.000  -0.003   0.001
  0.000   0.000   0.000   0.000   0.000   0.001   0.000   0.000
  0.000   0.000   0.000   0.001  -0.000   0.000   0.001  -0.000
  0.000   0.000   0.000  -0.000  -0.001   0.000  -0.000  -0.001
 -0.000  -0.000  -0.000   0.000   0.000   0.000   0.000   0.000
 -0.000  -0.000  -0.000   0.001  -0.000  -0.001   0.001  -0.000
 total augmentation occupancy for first ion, spin component:           1
  1.321   0.081   0.173   0.000  -0.001  -0.000  -0.000  -0.000   0.000  -0.000  -0.000   0.000   0.000   0.000   0.000  -0.000
  0.081   0.005   0.010   0.000   0.001   0.000   0.000   0.000   0.000   0.000   0.000   0.000   0.000  -0.000  -0.000   0.000
  0.173   0.010   0.044  -0.000  -0.004  -0.000  -0.000  -0.000  -0.000  -0.000  -0.000  -0.000  -0.000   0.000   0.000  -0.000
  0.000   0.000  -0.000   1.017   0.000   0.000   0.051   0.000  -0.000   0.016   0.000  -0.000   0.017   0.029  -0.002   0.004
 -0.001   0.001  -0.004   0.000   1.017  -0.000  -0.000   0.051   0.000  -0.000   0.016   0.000   0.004  -0.002  -0.042   0.014
 -0.000   0.000  -0.000   0.000  -0.000   1.016   0.000   0.000   0.051   0.000  -0.000   0.016   0.030   0.004   0.012   0.019
 -0.000   0.000  -0.000   0.051  -0.000   0.000   0.003  -0.000  -0.000   0.001  -0.000  -0.000   0.001   0.001  -0.000   0.000
 -0.000   0.000  -0.000   0.000   0.051   0.000  -0.000   0.003   0.000  -0.000   0.001   0.000   0.000  -0.000  -0.002   0.001
  0.000   0.000  -0.000  -0.000   0.000   0.051  -0.000   0.000   0.003  -0.000   0.000   0.001   0.001   0.000   0.001   0.001
 -0.000   0.000  -0.000   0.016  -0.000   0.000   0.001  -0.000  -0.000   0.000  -0.000  -0.000   0.000   0.000  -0.000   0.000
 -0.000   0.000  -0.000   0.000   0.016  -0.000  -0.000   0.001   0.000  -0.000   0.000   0.000   0.000  -0.000  -0.001   0.000
  0.000   0.000  -0.000  -0.000   0.000   0.016  -0.000   0.000   0.001  -0.000   0.000   0.000   0.000   0.000   0.000   0.000
  0.000   0.000  -0.000   0.017   0.004   0.030   0.001   0.000   0.001   0.000   0.000   0.000   0.002   0.001   0.000   0.001
  0.000  -0.000   0.000   0.029  -0.002   0.004   0.001  -0.000   0.000   0.000  -0.000   0.000   0.001   0.001   0.000   0.000
  0.000  -0.000   0.000  -0.002  -0.042   0.012  -0.000  -0.002   0.001  -0.000  -0.001   0.000   0.000   0.000   0.002  -0.000
 -0.000   0.000  -0.000   0.004   0.014   0.019   0.000   0.001   0.001   0.000   0.000   0.000   0.001   0.000  -0.000   0.001
  0.000  -0.000   0.000   0.029  -0.005  -0.024   0.001  -0.000  -0.001   0.000  -0.000  -0.000  -0.000   0.001  -0.000  -0.000
  0.000  -0.000   0.000  -0.011  -0.003  -0.020  -0.001  -0.000  -0.001  -0.000  -0.000  -0.000  -0.001  -0.000  -0.000  -0.000
 -0.000   0.000  -0.000  -0.019   0.001  -0.003  -0.001   0.000  -0.000  -0.000   0.000  -0.000  -0.000  -0.001  -0.000  -0.000
 -0.000   0.000  -0.000   0.001   0.028  -0.008   0.000   0.001  -0.000   0.000   0.000  -0.000  -0.000  -0.000  -0.002   0.000
  0.000  -0.000   0.000  -0.003  -0.009  -0.013  -0.000  -0.000  -0.001  -0.000  -0.000  -0.000  -0.000  -0.000   0.000  -0.001
 -0.000   0.000  -0.000  -0.019   0.003   0.016  -0.001   0.000   0.001  -0.000   0.000   0.000   0.000  -0.000   0.000   0.000


------------------------ aborting loop because EDIFF is reached ----------------------------------------


    FORLOC:  cpu time    2.5029: real time    2.5090
    FORHF :  cpu time   47.4821: real time   47.6120
    FORNL :  cpu time    6.7030: real time    6.7214
    FORCOR:  cpu time   17.5766: real time   17.6246
    OFIELD:  cpu time    0.0561: real time    0.0562

 VOLUME and BASIS-vectors are now :
 -----------------------------------------------------------------------------
  energy-cutoff  :     2000.00
  volume of cell :    42875.00
      direct lattice vectors                 reciprocal lattice vectors
    35.000000000  0.000000000  0.000000000     0.028571429  0.000000000  0.000000000
     0.000000000 35.000000000  0.000000000     0.000000000  0.028571429  0.000000000
     0.000000000  0.000000000 35.000000000     0.000000000  0.000000000  0.028571429

  length of vectors
    35.000000000 35.000000000 35.000000000     0.028571429  0.028571429  0.028571429


 FORCES acting on ions:
    Electron-Ion                     Ewald-Force                    Non-Local-Force
 -----------------------------------------------------------------------------------------------
   0.410E-01 -.442E-02 -.322E+00   -.436E-01 0.622E-02 0.316E+00   -.167E-02 -.151E-02 0.846E-02
   0.168E+03 -.552E+02 -.349E+02   -.167E+03 0.548E+02 0.346E+02   -.146E+01 0.479E+00 0.302E+00
   -.246E+02 0.165E+03 -.688E+02   0.244E+02 -.164E+03 0.683E+02   0.214E+00 -.143E+01 0.596E+00
   -.118E+03 -.115E+03 -.749E+02   0.117E+03 0.114E+03 0.743E+02   0.102E+01 0.995E+00 0.648E+00
   -.260E+02 0.478E+01 0.179E+03   0.258E+02 -.474E+01 -.177E+03   0.228E+00 -.399E-01 -.154E+01
   0.704E+02 0.313E+02 0.206E+02   -.744E+02 -.348E+02 -.229E+02   0.386E+01 0.352E+01 0.230E+01
   0.379E+02 -.112E+02 -.693E+02   -.390E+02 0.114E+02 0.749E+02   0.102E+01 -.221E+00 -.561E+01
   0.374E+02 -.680E+02 0.186E+02   -.384E+02 0.733E+02 -.207E+02   0.958E+00 -.521E+01 0.211E+01
   -.640E+02 0.477E+02 0.654E+00   0.693E+02 -.497E+02 -.165E+01   -.528E+01 0.191E+01 0.101E+01
   0.505E+01 0.265E+02 -.751E+02   -.583E+01 -.266E+02 0.808E+02   0.784E+00 0.543E-01 -.565E+01
   0.376E+02 0.688E+02 0.149E+02   -.412E+02 -.726E+02 -.172E+02   0.365E+01 0.376E+01 0.226E+01
   -.798E+02 0.114E+00 -.291E+00   0.852E+02 -.167E+01 -.700E+00   -.539E+01 0.160E+01 0.101E+01
   -.109E+02 -.212E+02 -.762E+02   0.103E+02 0.215E+02 0.818E+02   0.662E+00 -.286E+00 -.566E+01
   -.112E+02 -.781E+02 0.117E+02   0.106E+02 0.835E+02 -.137E+02   0.640E+00 -.528E+01 0.206E+01
   0.429E+01 -.578E+02 0.548E+02   -.501E+01 0.630E+02 -.573E+02   0.736E+00 -.515E+01 0.235E+01
   -.642E+02 0.205E+02 0.428E+02   0.695E+02 -.222E+02 -.441E+02   -.528E+01 0.174E+01 0.129E+01
   0.374E+02 0.415E+02 0.570E+02   -.411E+02 -.451E+02 -.596E+02   0.365E+01 0.358E+01 0.254E+01
 -----------------------------------------------------------------------------------------------
   0.827E-02 -.569E-02 -.200E-01   -.213E-13 -.568E-13 0.426E-13   -.489E-02 0.462E-02 0.194E-01
 
 
 POSITION                                       TOTAL-FORCE (eV/Angst)
 -----------------------------------------------------------------------------------
      0.38252     34.92939      0.76690        -0.003627     -0.000801      0.011376
     33.95936      0.39681      1.06094        -0.291367      0.094210      0.062758
      0.59085     33.53318      1.34798         0.041476     -0.277446      0.116552
      1.37827      0.89844      1.39915         0.199577      0.194732      0.129139
      0.60196     34.88897     34.25690         0.047278     -0.006323     -0.291136
     33.22843     34.71850      0.61833         0.136991      0.190748      0.118925
     33.77528      0.43574      2.13552         0.006618      0.002847     -0.259689
     33.78593      1.39372      0.65309        -0.006772     -0.239162      0.110512
      1.60291     33.17705      1.15010        -0.251148      0.040641      0.066207
      0.43897     33.53325      2.42829         0.044030     -0.039668     -0.253692
     34.89008     32.82132      0.90931         0.188406      0.131666      0.128756
      2.40439      0.58544      1.20073        -0.226747      0.115032      0.068697
      1.24378      0.94597      2.48071         0.061716      0.015344     -0.252373
      1.24837      1.90502      0.99895         0.070416     -0.223741      0.120089
      0.45921      0.87704     33.81710         0.044715     -0.252898      0.056111
      1.61369     34.55654     34.02033        -0.248369      0.082537      0.003440
     34.90047     34.20245     33.78078         0.186807      0.172281      0.064328
 -----------------------------------------------------------------------------------
    total drift:                               -0.004445      0.006292      0.012124


--------------------------------------------------------------------------------------------------------



  FREE ENERGIE OF THE ION-ELECTRON SYSTEM (eV)
  ---------------------------------------------------
  free  energy   TOTEN  =      -146.28759300 eV

  energy  without entropy=     -146.28759300  energy(sigma->0) =     -146.28759300
 


--------------------------------------------------------------------------------------------------------


    POTLOK:  cpu time   18.9626: real time   19.0145


--------------------------------------------------------------------------------------------------------


     LOOP+:  cpu time10296.1246: real time10334.9494
    4ORBIT:  cpu time    0.0000: real time    0.0000

 total amount of memory used by VASP on root node  4819662. kBytes
========================================================================

   base      :      30000. kBytes
   nonl-proj :     339603. kBytes
   fftplans  :    1713006. kBytes
   grid      :    2553282. kBytes
   one-center:         34. kBytes
   HF        :        193. kBytes
   nonlr-proj:        673. kBytes
   wavefun   :     182871. kBytes
 
  
  
 General timing and accounting informations for this job:
 ========================================================
  
                  Total CPU time used (sec):    11255.970
                            User time (sec):    10274.487
                          System time (sec):      981.483
                         Elapsed time (sec):    11297.958
  
                   Maximum memory used (kb):     7041372.
                   Average memory used (kb):           0.
  
                          Minor page faults:      3148900
                          Major page faults:            4
                 Voluntary context switches:      1416412
 
 PROFILE, used timers:      39
 =============================
 
 index                 routine                    time                            calls level
----------------------------------------------------------------------------------------------
    1    total_time                        11297.959540                                1   1
    2      w1_copy                               3.089271                           1696   2
    3      fftwav_mpi                          385.770856                           1393   2
    4      fftext_mpi                            1.177095                              7   2
    5      overl                                 0.003568                            867   2
    6      orth1                                 3.922359                            586   2
    7      lincom                                4.515463                            336   2
    8      eccp                                 59.291595                           1190   2
    9      hamiltmu                             76.967731                             85   2
   10        vhamil                                8.978073                          148   3
   11        overl1                                0.000415                          148   3
   12        kinhamil                             25.219372                          148   3
   13          fftext_mpi                           24.934485                        148   4
   14      pdssyex_zheevx                        3.968629                            115   2
   15      fock_acc                           2971.462013                            220   2
   16        w1_copy                               3.269308                         1265   3
   17        fftwav_mpi                          171.558203                         1265   3
   18        fock_charge_mu                      165.150945                          880   3
   19          racc0mu_hf                            2.972564                        880   4
   20        rpromu_hf                             7.197562                          880   3
   21        overl1                                0.000924                          385   3
   22        fftext_mpi                           71.964182                          385   3
   23      hamilt_local                        102.875746                            385   2
   24        vhamil                               22.763119                          385   3
   25        kinhamil                             80.111686                          385   3
   26          fftext_mpi                           79.357626                        385   4
   27      w1_dscal                             11.072660                            385   2
   28      eddiag                             3089.747578                             55   2
   29        fock_acc                           2976.387269                          220   3
   30          w1_copy                               2.889285                       1265   4
   31          fftwav_mpi                          171.621960                       1265   4
   32          fock_charge_mu                      164.888722                        880   4
   33            racc0mu_hf                            2.750628                      880   5
   34          rpromu_hf                             7.567678                        880   4
   35          overl1                                0.000919                        385   4
   36          fftext_mpi                           70.544254                        385   4
   37        fftwav_mpi                           93.701048                          385   3
   38        eccp                                 18.080685                          385   3
   39      rpro1_hf                              0.897266                            448   2
 
 Flat profile
 ============
 
             routine name                   CPU           calls
 ---------------------------------------------------------------
 fock_acc                             5111.195341         440
 total_time                           4583.197712           1
 fftwav_mpi                            822.652066        4308
 fock_charge_mu                        324.316473        1760
 fftext_mpi                            247.977643        1310
 eccp                                   77.372280        1575
 hamiltmu                               42.769871          85
 vhamil                                 31.741193         533
 rpromu_hf                              14.765240        1760
 w1_dscal                               11.072660         385
 w1_copy                                 9.247864        4226
 racc0mu_hf                              5.723193        1760
 lincom                                  4.515463         336
 pdssyex_zheevx                          3.968629         115
 orth1                                   3.922359         586
 eddiag                                  1.578576          55
 kinhamil                                1.038946         533
 rpro1_hf                                0.897266         448
 overl                                   0.003568         867
 overl1                                  0.002259         918
 hamilt_local                            0.000940         385
 ---------------------------------------------------------------
  summed up times    11297.9595401287     
 
Profiling took   0.017873  0.006792  0.003122  0.003099 seconds
Profiling took   0.013057 seconds
