 vasp.5.4.1 24Jun15 (build Jan 02 2020 16:21:29) gamma-only                     
  
 executed on           IFC15_impi date 2020.04.21  02:36:21
 running on   32 total cores
 distrk:  each k-point on   32 cores,    1 groups
 distr:  one band on NCORES_PER_BAND=   8 cores,    4 groups


--------------------------------------------------------------------------------------------------------


 INCAR:
 POTCAR:    PAW_PBE C_h_GW 23May2013              
 POTCAR:    PAW_PBE H_h_GW 21Apr2008              
 POTCAR:    PAW_PBE C_h_GW 23May2013              
   VRHFIN =C: s2p2                                                              
   LEXCH  = PE                                                                  
   EATOM  =   147.1560 eV,   10.8157 Ry                                         
                                                                                
   TITEL  = PAW_PBE C_h_GW 23May2013                                            
   LULTRA =        F    use ultrasoft PP ?                                      
   IUNSCR =        1    unscreen: 0-lin 1-nonlin 2-no                           
   RPACOR =    0.800    partial core radius                                     
   POMASS =   12.011; ZVAL   =    4.000    mass and valenz                      
   RCORE  =    1.100    outmost cutoff radius                                   
   RWIGS  =    1.200; RWIGS  =    0.635    wigner-seitz radius (au A)           
   ENMAX  =  741.689; ENMIN  =  556.267 eV                                      
   RCLOC  =    0.804    cutoff for local pot                                    
   LCOR   =        T    correct aug charges                                     
   LPAW   =        T    paw PP                                                  
   EAUG   = 1782.225                                                            
   DEXC   =    0.000                                                            
   RMAX   =    1.128    core radius for proj-oper                               
   RAUG   =    1.300    factor for augmentation sphere                          
   RDEP   =    1.162    radius for radial grids                                 
   RDEPT  =    1.000    core radius for aug-charge                              
                                                                                
   Atomic configuration                                                         
    5 entries                                                                   
     n  l   j            E        occ.                                          
     1  0  0.50      -273.3789   2.0000                                         
     2  0  0.50       -13.7508   2.0000                                         
     2  1  0.50        -5.2854   2.0000                                         
     3  2  1.50        -5.4423   0.0000                                         
     4  3  2.50        -5.4423   0.0000                                         
   Description                                                                  
     l       E           TYP  RCUT    TYP  RCUT                                 
     0    -13.7508457     23  1.000                                             
     0     81.6349560     23  1.000                                             
     0    204.0873900     23  1.000                                             
     1     -5.2854382     23  1.100                                             
     1    204.0873900     23  1.100                                             
     1    380.9631280     23  1.100                                             
     2     81.6349560     23  1.100                                             
     2    204.0873900     23  1.100                                             
  local pseudopotential read in
  partial core-charges read in
  partial kinetic energy density read in
  kinetic energy density of atom read in
  atomic valenz-charges read in
  non local Contribution for L=           0  read in
    real space projection operators read in
  non local Contribution for L=           0  read in
    real space projection operators read in
  non local Contribution for L=           0  read in
    real space projection operators read in
  non local Contribution for L=           1  read in
    real space projection operators read in
  non local Contribution for L=           1  read in
    real space projection operators read in
  non local Contribution for L=           1  read in
    real space projection operators read in
  non local Contribution for L=           2  read in
    real space projection operators read in
  non local Contribution for L=           2  read in
    real space projection operators read in
    PAW grid and wavefunctions read in
 
   number of l-projection  operators is LMAX  =           8
   number of lm-projection operators is LMMAX =          22
 
 POTCAR:    PAW_PBE H_h_GW 21Apr2008              
   VRHFIN =H: ultrasoft test                                                    
   LEXCH  = PE                                                                  
   EATOM  =    12.4884 eV,    0.9179 Ry                                         
                                                                                
   TITEL  = PAW_PBE H_h_GW 21Apr2008                                            
   LULTRA =        F    use ultrasoft PP ?                                      
   IUNSCR =        0    unscreen: 0-lin 1-nonlin 2-no                           
   RPACOR =    0.000    partial core radius                                     
   POMASS =    1.000; ZVAL   =    1.000    mass and valenz                      
   RCORE  =    0.800    outmost cutoff radius                                   
   RWIGS  =    1.100; RWIGS  =    0.582    wigner-seitz radius (au A)           
   ENMAX  =  700.000; ENMIN  =  350.000 eV                                      
   RCLOC  =    0.701    cutoff for local pot                                    
   LCOR   =        T    correct aug charges                                     
   LPAW   =        T    paw PP                                                  
   EAUG   = 1000.000                                                            
   RMAX   =    0.819    core radius for proj-oper                               
   RAUG   =    1.000    factor for augmentation sphere                          
   RDEP   =    0.817    radius for radial grids                                 
   RDEPT  =    1.000    core radius for aug-charge                              
                                                                                
   Atomic configuration                                                         
    3 entries                                                                   
     n  l   j            E        occ.                                          
     1  0  0.50        -6.4927   1.0000                                         
     2  1  0.50        -3.4015   0.0000                                         
     3  2  1.50        13.6058   0.0000                                         
   Description                                                                  
     l       E           TYP  RCUT    TYP  RCUT                                 
     0     -6.4927495     23  0.800                                             
     0      6.8029130     23  0.800                                             
     1     -4.0817478     23  0.800                                             
     1    108.8466080     23  0.800                                             
     2     81.6349560     23  0.800                                             
  local pseudopotential read in
  kinetic energy density of atom read in
  atomic valenz-charges read in
  non local Contribution for L=           0  read in
    real space projection operators read in
  non local Contribution for L=           0  read in
    real space projection operators read in
  non local Contribution for L=           1  read in
    real space projection operators read in
  non local Contribution for L=           1  read in
    real space projection operators read in
  non local Contribution for L=           2  read in
    real space projection operators read in
    PAW grid and wavefunctions read in
 
   number of l-projection  operators is LMAX  =           5
   number of lm-projection operators is LMMAX =          13
 
  PAW_PBE C_h_GW 23May2013              :
 energy of atom  1       EATOM= -147.1560
 kinetic energy error for atom=    0.0004 (will be added to EATOM!!)
  PAW_PBE H_h_GW 21Apr2008              :
 energy of atom  2       EATOM=  -12.4884
 kinetic energy error for atom=    0.0001 (will be added to EATOM!!)
 
 
 POSCAR: C H                                     
  positions in cartesian coordinates
  No initial velocities read in
 exchange correlation table for  LEXCH =        8
   RHO(1)=    0.500       N(1)  =     2000
   RHO(2)=  100.500       N(2)  =     4000
 


--------------------------------------------------------------------------------------------------------


 ion  position               nearest neighbor table
   1  0.983  0.999  0.011-   3 1.06   2 1.21
   2  0.017  0.999  0.011-   4 1.06   1 1.21
   3  0.952  0.999  0.011-   1 1.06
   4  0.048  0.999  0.011-   2 1.06
 
  LATTYP: Found a simple cubic cell.
 ALAT       =    35.0000000000
  
  Lattice vectors:
  
 A1 = (  35.0000000000,   0.0000000000,   0.0000000000)
 A2 = (   0.0000000000,  35.0000000000,   0.0000000000)
 A3 = (   0.0000000000,   0.0000000000,  35.0000000000)


Analysis of symmetry for initial positions (statically):
=====================================================================
 Subroutine PRICEL returns:
 Original cell was already a primitive cell.
 

 Routine SETGRP: Setting up the symmetry group for a 
 simple cubic supercell.


 Subroutine GETGRP returns: Found  1 space group operations
 (whereof  1 operations were pure point group operations)
 out of a pool of 48 trial point group operations.


The static configuration has the point symmetry C_1 .


Analysis of symmetry for dynamics (positions and initial velocities):
=====================================================================
 Subroutine PRICEL returns:
 Original cell was already a primitive cell.
 

 Routine SETGRP: Setting up the symmetry group for a 
 simple cubic supercell.


 Subroutine GETGRP returns: Found  1 space group operations
 (whereof  1 operations were pure point group operations)
 out of a pool of 48 trial point group operations.


The dynamic configuration has the point symmetry C_1 .
 
 
 KPOINTS: automatic mesh                          

Automatic generation of k-mesh.
Space group operators:
 irot       det(A)        alpha          n_x          n_y          n_z        tau_x        tau_y        tau_z
    1     1.000000     0.000000     1.000000     0.000000     0.000000     0.000000     0.000000     0.000000
 
 Subroutine IBZKPT returns following result:
 ===========================================
 
 Found      1 irreducible k-points:
 
 Following reciprocal coordinates:
            Coordinates               Weight
  0.000000  0.000000  0.000000      1.000000
 
 Following cartesian coordinates:
            Coordinates               Weight
  0.000000  0.000000  0.000000      1.000000
 
 
 Subroutine IBZKPT_HF returns following result:
 ==============================================
 
 Found      1 k-points in 1st BZ
 the following      1 k-points will be used (e.g. in the exchange kernel)
 Following reciprocal coordinates:   # in IRBZ
  0.000000  0.000000  0.000000    1.00000000   1 t-inv F


--------------------------------------------------------------------------------------------------------




 Dimension of arrays:
   k-points           NKPTS =      1   k-points in BZ     NKDIM =      1   number of bands    NBANDS=     12
   number of dos      NEDOS =    301   number of ions     NIONS =      4
   non local maximal  LDIM  =      8   non local SUM 2l+1 LMDIM =     22
   total plane-waves  NPLWV = ******
   max r-space proj   IRMAX =      1   max aug-charges    IRDMAX=  18497
   dimension x,y,z NGX =   512 NGY =  512 NGZ =  512
   dimension x,y,z NGXF=  1024 NGYF= 1024 NGZF= 1024
   support grid    NGXF=  1024 NGYF= 1024 NGZF= 1024
   ions per type =               2   2
 NGX,Y,Z   is equivalent  to a cutoff of  24.32, 24.32, 24.32 a.u.
 NGXF,Y,Z  is equivalent  to a cutoff of  48.64, 48.64, 48.64 a.u.


 I would recommend the setting:
   dimension x,y,z NGX =   511 NGY =  511 NGZ =  511
 SYSTEM =  C                                       
 POSCAR =  C H                                     

 Startparameter for this run:
   NWRITE =      2    write-flag & timer
   PREC   = accura    normal or accurate (medium, high low for compatibility)
   ISTART =      0    job   : 0-new  1-cont  2-samecut
   ICHARG =      2    charge: 1-file 2-atom 10-const
   ISPIN  =      1    spin polarized calculation?
   LNONCOLLINEAR =      F non collinear calculations
   LSORBIT =      F    spin-orbit coupling
   INIWAV =      1    electr: 0-lowe 1-rand  2-diag
   LASPH  =      T    aspherical Exc in radial PAW
   METAGGA=      F    non-selfconsistent MetaGGA calc.

 Electronic Relaxation 1
   ENCUT  = 2000.0 eV 147.00 Ry   12.12 a.u. 127.63127.63127.63*2*pi/ulx,y,z
   ENINI  = 2000.0     initial cutoff
   ENAUG  = 1782.2 eV  augmentation charge cutoff
   NELM   =     60;   NELMIN=  2; NELMDL= -5     # of ELM steps 
   EDIFF  = 0.1E-06   stopping-criterion for ELM
   LREAL  =      F    real-space projection
   NLSPLINE    = F    spline interpolate recip. space projectors
   LCOMPAT=      F    compatible to vasp.4.4
   GGA_COMPAT  = T    GGA compatible to vasp.4.4-vasp.4.6
   LMAXPAW     = -100 max onsite density
   LMAXMIX     =    2 max onsite mixed and CHGCAR
   VOSKOWN=      0    Vosko Wilk Nusair interpolation
   ROPT   =    0.00000   0.00000
 Ionic relaxation
   EDIFFG = 0.1E-05   stopping-criterion for IOM
   NSW    =      0    number of steps for IOM
   NBLOCK =      1;   KBLOCK =      1    inner block; outer block 
   IBRION =     -1    ionic relax: 0-MD 1-quasi-New 2-CG
   NFREE  =      0    steps in history (QN), initial steepest desc. (CG)
   ISIF   =      0    stress and relaxation
   IWAVPR =     10    prediction:  0-non 1-charg 2-wave 3-comb
   ISYM   =      3    0-nonsym 1-usesym 2-fastsym
   LCORR  =      T    Harris-Foulkes like correction to forces

   POTIM  = 0.5000    time-step for ionic-motion
   TEIN   =    0.0    initial temperature
   TEBEG  =    0.0;   TEEND  =   0.0 temperature during run
   SMASS  =  -3.00    Nose mass-parameter (am)
   estimated Nose-frequenzy (Omega)   =  0.10E-29 period in steps =****** mass=  -0.280E-25a.u.
   SCALEE = 1.0000    scale energy and forces
   NPACO  =    256;   APACO  = 16.0  distance and # of slots for P.C.
   PSTRESS=    0.0 pullay stress

  Mass of Ions in am
   POMASS =  12.01  1.00
  Ionic Valenz
   ZVAL   =   4.00  1.00
  Atomic Wigner-Seitz radii
   RWIGS  =  -1.00 -1.00
  virtual crystal weights 
   VCA    =   1.00  1.00
   NELECT =      10.0000    total number of electrons
   NUPDOWN=      -1.0000    fix difference up-down

 DOS related values:
   EMIN   =  10.00;   EMAX   =-10.00  energy-range for DOS
   EFERMI =   0.00
   ISMEAR =     0;   SIGMA  =   0.01  broadening in eV -4-tet -1-fermi 0-gaus

 Electronic relaxation 2 (details)
   IALGO  =     58    algorithm
   LDIAG  =      T    sub-space diagonalisation (order eigenvalues)
   LSUBROT=      F    optimize rotation matrix (better conditioning)
   TURBO    =      0    0=normal 1=particle mesh
   IRESTART =      0    0=no restart 2=restart with 2 vectors
   NREBOOT  =      0    no. of reboots
   NMIN     =      0    reboot dimension
   EREF     =   0.00    reference energy to select bands
   IMIX   =      4    mixing-type and parameters
     AMIX     =   0.40;   BMIX     =  1.00
     AMIX_MAG =   1.60;   BMIX_MAG =  1.00
     AMIN     =   0.10
     WC   =   100.;   INIMIX=   1;  MIXPRE=   1;  MAXMIX= -45

 Intra band minimization:
   WEIMIN = 0.0000     energy-eigenvalue tresh-hold
   EBREAK =  0.21E-08  absolut break condition
   DEPER  =   0.30     relativ break condition  

   TIME   =   0.40     timestep for ELM

  volume/ion in A,a.u.               =   10718.75     72333.69
  Fermi-wavevector in a.u.,A,eV,Ry     =   0.100772  0.190432  0.138167  0.010155
  Thomas-Fermi vector in A             =   0.676899
 
 Write flags
   LWAVE  =      F    write WAVECAR
   LCHARG =      T    write CHGCAR
   LVTOT  =      F    write LOCPOT, total local potential
   LVHAR  =      F    write LOCPOT, Hartree potential only
   LELF   =      F    write electronic localiz. function (ELF)
   LORBIT =      0    0 simple, 1 ext, 2 COOP (PROOUT)


 Dipole corrections
   LMONO  =      F    monopole corrections only (constant potential shift)
   LDIPOL =      F    correct potential (dipole corrections)
   IDIPOL =      0    1-x, 2-y, 3-z, 4-all directions 
   EPSILON=  1.0000000 bulk dielectric constant

 Exchange correlation treatment:
   GGA     =    --    GGA type
   LEXCH   =     8    internal setting for exchange type
   VOSKOWN=      0    Vosko Wilk Nusair interpolation
   EXXOEP  =     0    0=HF, 1=EXX-LHF (local Hartree Fock) 2=EXX OEP
   LHFCALC =     T    Hartree Fock is set to
   LSYMGRAD=     F    symmetrize gradient (conserves proper symmetry)
   PRECFOCK=normal    Normal, Fast or Accurate (Low or Medium for compatibility)
   LRHFCALC=     F    long range Hartree Fock
   LRSCOR  =     F    long range correlation only (use DFT for short range part)
   LTHOMAS =     F    Thomas Fermi screening in HF
   LMODELHF=     F    short range full HF, long range fraction AEXX
   ENCUT4O =  -1.0   cutoff for four orbital integrals eV
   LMAXFOCK=     4    L truncation for augmentation on plane wave grid
   LMAXFOCKAE=  -1    L truncation for all-electron charge restoration on plane wave grid
   NMAXFOCKAE=   1    number of basis functions for all-electron charge restoration
   LFOCKAEDFT=     F  apply the AE augmentation even for DFT
   NKREDX  =     1    reduce k-point grid by
   NKREDY  =     1    reduce k-point grid by
   NKREDZ  =     1    reduce k-point grid by
   SHIFTRED=     F    shift reduced grid of Gamma
   HFKIDENT=     F    idential grid for each k-point
   ODDONLY =     F    use only odd q-grid points
   EVENONLY=     F    use only even q-grid points
   HFALPHA =   -1.0000 decay constant for conv. correction
   MCALPHA =    0.0000 extent of test-charge in conv. correction in multipole expansion
   AEXX    =    1.0000 exact exchange contribution
   HFSCREEN=    0.0000 screening length (either q_TF or 0.3 A-1)
   HFSCREENC=   0.0000 screening length for correlation (either q_TF or 0.3 A-1)
   HFRCUT  =    0.0000 spherical cutoff for potential kernel
   ALDAX   =    0.0000 LDA exchange part
   AGGAX   =    0.0000 GGA exchange part
   ALDAC   =    0.0000 LDA correlation
   AGGAC   =    0.0000 GGA correlation
   NBANDSGWLOW=     1    first orbital included in HF term
   ENCUTFOCK=  -1.0 apply spherical cutoff to Coloumb kernel
 Linear response parameters
   LEPSILON=     F    determine dielectric tensor
   LRPA    =     F    only Hartree local field effects (RPA)
   LNABLA  =     F    use nabla operator in PAW spheres
   LVEL    =     F    velocity operator in full k-point grid
   LINTERFAST=   F  fast interpolation
   KINTER  =     0    interpolate to denser k-point grid
   CSHIFT  =0.1000    complex shift for real part using Kramers Kronig
   OMEGAMAX=  -1.0    maximum frequency
   DEG_THRESHOLD= 0.2000000E-02 threshold for treating states as degnerate
   RTIME   =    0.100 relaxation time in fs

 Orbital magnetization related:
   ORBITALMAG=     F  switch on orbital magnetization
   LCHIMAG   =     F  perturbation theory with respect to B field
   DQ        =  0.001000  dq finite difference perturbation B field



--------------------------------------------------------------------------------------------------------


 Static calculation
 charge density and potential will be updated during run
 non-spin polarized calculation
 Conjugate gradient for all bands (Freysoldt, et al. PRB 79, 241103 (2009))
 preconditioned conjugated gradient                                        
 perform sub-space diagonalisation
    before iterative eigenvector-optimisation
 modified Broyden-mixing scheme, WC =      100.0
 initial mixing is a Kerker type mixing with AMIX =  0.4000 and BMIX =      1.0000
 Hartree-type preconditioning will be used
 using additional bands            7
 reciprocal scheme for non local part
 use partial core corrections
 no Harris-corrections to forces 
 use gradient corrections 
 use of overlap-Matrix (Vanderbilt PP)
 Gauss-broadening in eV      SIGMA  =   0.01


--------------------------------------------------------------------------------------------------------


  energy-cutoff  :     2000.00
  volume of cell :    42875.00
      direct lattice vectors                 reciprocal lattice vectors
    35.000000000  0.000000000  0.000000000     0.028571429  0.000000000  0.000000000
     0.000000000 35.000000000  0.000000000     0.000000000  0.028571429  0.000000000
     0.000000000  0.000000000 35.000000000     0.000000000  0.000000000  0.028571429

  length of vectors
    35.000000000 35.000000000 35.000000000     0.028571429  0.028571429  0.028571429


 
 k-points in units of 2pi/SCALE and weight: automatic mesh                          
   0.00000000  0.00000000  0.00000000       1.000
 
 k-points in reciprocal lattice and weights: automatic mesh                          
   0.00000000  0.00000000  0.00000000       1.000
 
 position of ions in fractional coordinates (direct lattice) 
   0.98280772  0.99918371  0.01099814
   0.01743169  0.99918104  0.01109039
   0.95246470  0.99918496  0.01082898
   0.04777530  0.99917734  0.01108479
 
 position of ions in cartesian coordinates  (Angst):
  34.39827004 34.97142988  0.38493492
   0.61010917 34.97133636  0.38816379
  33.33626457 34.97147343  0.37901431
   1.67213544 34.97120692  0.38796752
 


--------------------------------------------------------------------------------------------------------


 use parallel FFT for wavefunctions z direction half grid
 k-point  1 :   0.0000 0.0000 0.0000  plane waves: 4353902

 maximum and minimum number of plane-waves per node :    544247   544233

 maximum number of plane-waves:   4353902
 maximum index in each direction: 
   IXMAX=  127   IYMAX=  127   IZMAX=  127
   IXMIN= -127   IYMIN= -127   IZMIN=    0

 NGX is ok and might be reduce to 510
 NGY is ok and might be reduce to 510
 NGZ is ok and might be reduce to 510

 parallel 3D FFT for wavefunctions:
    minimum data exchange during FFTs selected (reduces bandwidth)
 parallel 3D FFT for charge:
    minimum data exchange during FFTs selected (reduces bandwidth)


 FFT grid for exact exchange (Hartree Fock) 
  NGX =384; NGY =384; NGZ =384

 use parallel FFT for wavefunctions z direction half grid
 
 Radii for the augmentation spheres in the non-local exchange
 for species   1 augmentation radius   0.676 (default was   0.541)
       energy cutoff for augmentation   8000.0
 for species   2 augmentation radius   0.588 (default was   0.553)
       energy cutoff for augmentation   8000.0

 real space projection operators:
  total allocation   :       1108.79 KBytes
  max/ min on nodes  :        143.95        133.01

 Maximum index for augmentation-charges in exchange          202
  SETUP_FOCK is finished

 total amount of memory used by VASP on root node  4601331. kBytes
========================================================================

   base      :      30000. kBytes
   nonl-proj :     226402. kBytes
   fftplans  :    1713006. kBytes
   grid      :    2553282. kBytes
   one-center:         11. kBytes
   HF        :         96. kBytes
   nonlr-proj:        165. kBytes
   wavefun   :      78369. kBytes
 
     INWAV:  cpu time    0.0000: real time    0.0002
 Broyden mixing: mesh for mixing (old mesh)
   NGX =255   NGY =255   NGZ =255
  (NGX  =***   NGY  =***   NGZ  =***)
  gives a total of ****** points

 initial charge density was supplied:
 charge density of overlapping atoms calculated
 number of electron      10.0000000 magnetization 
 keeping initial charge density in first step


--------------------------------------------------------------------------------------------------------


 Maximum index for augmentation-charges          159 (set IRDMAX)


--------------------------------------------------------------------------------------------------------


 FEWALD executed in parallel
    FEWALD:  cpu time    0.0001: real time    0.0001


----------------------------------------- Iteration    1(   1)  ---------------------------------------


    POTLOK:  cpu time   17.5833: real time   17.6328
    SETDIJ:  cpu time    0.1446: real time    0.1449
    TRIAL :  cpu time    6.1322: real time    6.1537
    CORREC:  cpu time    0.0001: real time    0.0001
    --------------------------------------------
      LOOP:  cpu time   23.9709: real time   24.0445

 eigenvalue-minimisations  :    24
 total energy-change (2. order) : 0.7355735E+02  (-0.1449321E+03)
 number of electron      10.0000000 magnetization 
 augmentation part       10.0000000 magnetization 

 Free energy of the ion-electron system (eV)
  ---------------------------------------------------
  alpha Z        PSCENC =         0.00730783
  Ewald energy   TEWEN  =       295.26350922
  -Hartree energ DENC   =      -503.74844079
  -exchange      EXHF   =         0.00000000
  -V(xc)+E(xc)   XCENC  =         0.00000000
  PAW double counting   =       242.16263331     -242.45463682
  entropy T*S    EENTRO =        -0.00000001
  eigenvalues    EBANDS =        -8.10501966
  atomic energy  EATOM  =       290.43199289
  ---------------------------------------------------
  free energy    TOTEN  =        73.55734596 eV

  energy without entropy =       73.55734597  energy(sigma->0) =       73.55734596
  exchange ACFDT corr.  =         0.00000000  see jH, gK, PRB 81, 115126


--------------------------------------------------------------------------------------------------------




----------------------------------------- Iteration    1(   2)  ---------------------------------------


    TRIAL :  cpu time    6.7118: real time    6.7361
    CORREC:  cpu time    0.0004: real time    0.0004
    --------------------------------------------
      LOOP:  cpu time    6.7154: real time    6.7423

 eigenvalue-minimisations  :    28
 total energy-change (2. order) :-0.7975700E+01  (-0.7914982E+01)
 number of electron      10.0000000 magnetization 
 augmentation part       10.0000000 magnetization 

 Free energy of the ion-electron system (eV)
  ---------------------------------------------------
  alpha Z        PSCENC =         0.00730783
  Ewald energy   TEWEN  =       295.26350922
  -Hartree energ DENC   =      -503.74844079
  -exchange      EXHF   =         0.00000000
  -V(xc)+E(xc)   XCENC  =         0.00000000
  PAW double counting   =       242.16263331     -242.45463682
  entropy T*S    EENTRO =        -0.00398229
  eigenvalues    EBANDS =       -16.07673719
  atomic energy  EATOM  =       290.43199289
  ---------------------------------------------------
  free energy    TOTEN  =        65.58164615 eV

  energy without entropy =       65.58562844  energy(sigma->0) =       65.58363730
  exchange ACFDT corr.  =         0.00000000  see jH, gK, PRB 81, 115126


--------------------------------------------------------------------------------------------------------




----------------------------------------- Iteration    1(   3)  ---------------------------------------


    TRIAL :  cpu time   10.0886: real time   10.1248
    CORREC:  cpu time    0.0002: real time    0.0002
    --------------------------------------------
      LOOP:  cpu time   10.0914: real time   10.1304

 eigenvalue-minimisations  :    48
 total energy-change (2. order) :-0.8599103E+01  (-0.8474673E+01)
 number of electron      10.0000000 magnetization 
 augmentation part       10.0000000 magnetization 

 Free energy of the ion-electron system (eV)
  ---------------------------------------------------
  alpha Z        PSCENC =         0.00730783
  Ewald energy   TEWEN  =       295.26350922
  -Hartree energ DENC   =      -503.74844079
  -exchange      EXHF   =         0.00000000
  -V(xc)+E(xc)   XCENC  =         0.00000000
  PAW double counting   =       242.16263331     -242.45463682
  entropy T*S    EENTRO =        -0.01127040
  eigenvalues    EBANDS =       -24.66855197
  atomic energy  EATOM  =       290.43199289
  ---------------------------------------------------
  free energy    TOTEN  =        56.98254326 eV

  energy without entropy =       56.99381366  energy(sigma->0) =       56.98817846
  exchange ACFDT corr.  =         0.00000000  see jH, gK, PRB 81, 115126


--------------------------------------------------------------------------------------------------------




----------------------------------------- Iteration    1(   4)  ---------------------------------------


    TRIAL :  cpu time    7.3882: real time    7.4143
    CORREC:  cpu time    0.0002: real time    0.0002
    --------------------------------------------
      LOOP:  cpu time    7.3910: real time    7.4196

 eigenvalue-minimisations  :    32
 total energy-change (2. order) :-0.5940683E+01  (-0.5741871E+01)
 number of electron      10.0000000 magnetization 
 augmentation part       10.0000000 magnetization 

 Free energy of the ion-electron system (eV)
  ---------------------------------------------------
  alpha Z        PSCENC =         0.00730783
  Ewald energy   TEWEN  =       295.26350922
  -Hartree energ DENC   =      -503.74844079
  -exchange      EXHF   =         0.00000000
  -V(xc)+E(xc)   XCENC  =         0.00000000
  PAW double counting   =       242.16263331     -242.45463682
  entropy T*S    EENTRO =        -0.01314334
  eigenvalues    EBANDS =       -30.60736159
  atomic energy  EATOM  =       290.43199289
  ---------------------------------------------------
  free energy    TOTEN  =        51.04186071 eV

  energy without entropy =       51.05500404  energy(sigma->0) =       51.04843238
  exchange ACFDT corr.  =         0.00000000  see jH, gK, PRB 81, 115126


--------------------------------------------------------------------------------------------------------




----------------------------------------- Iteration    1(   5)  ---------------------------------------


    TRIAL :  cpu time   10.0771: real time   10.1133
    CORREC:  cpu time    0.0002: real time    0.0002
    CHARGE:  cpu time    2.6701: real time    2.6813
    --------------------------------------------
      LOOP:  cpu time   12.7496: real time   12.7999

 eigenvalue-minimisations  :    48
 total energy-change (2. order) :-0.1262106E+01  (-0.1257985E+01)
 number of electron      10.0000000 magnetization 
 augmentation part        0.0579047 magnetization 

 Free energy of the ion-electron system (eV)
  ---------------------------------------------------
  alpha Z        PSCENC =         0.00730783
  Ewald energy   TEWEN  =       295.26350922
  -Hartree energ DENC   =      -503.74844079
  -exchange      EXHF   =         0.00000000
  -V(xc)+E(xc)   XCENC  =         0.00000000
  PAW double counting   =       242.16263331     -242.45463682
  entropy T*S    EENTRO =        -0.01904986
  eigenvalues    EBANDS =       -31.86356072
  atomic energy  EATOM  =       290.43199289
  ---------------------------------------------------
  free energy    TOTEN  =        49.77975505 eV

  energy without entropy =       49.79880491  energy(sigma->0) =       49.78927998
  exchange ACFDT corr.  =         0.00000000  see jH, gK, PRB 81, 115126


--------------------------------------------------------------------------------------------------------




----------------------------------------- Iteration    1(   6)  ---------------------------------------


    POTLOK:  cpu time   19.2705: real time   19.3233
    SETDIJ:  cpu time    0.1422: real time    0.1425
    TRIAL :  cpu time   21.5315: real time   21.6337
    CORREC:  cpu time   40.8505: real time   41.0067
    CHARGE:  cpu time    2.6149: real time    2.6260
    --------------------------------------------
      LOOP:  cpu time   84.4149: real time   84.7401

 eigenvalue-minimisations  :     0
 total energy-change (2. order) : 0.3101527E+02  (-0.2232927E+02)
 number of electron      10.0000000 magnetization 
 augmentation part        0.1156633 magnetization 

 Free energy of the ion-electron system (eV)
  ---------------------------------------------------
  alpha Z        PSCENC =         0.00730783
  Ewald energy   TEWEN  =       295.26350922
  -Hartree energ DENC   =      -183.40129878
  -exchange      EXHF   =        55.18255270
  -V(xc)+E(xc)   XCENC  =         0.00000000
  PAW double counting   =      1320.54524094    -1320.73803421
  entropy T*S    EENTRO =        -0.01398589
  eigenvalues    EBANDS =      -376.47719927
  atomic energy  EATOM  =       290.43199289
  ---------------------------------------------------
  free energy    TOTEN  =        80.79502145 eV

  energy without entropy =       80.80900733  energy(sigma->0) =       80.80201439
  exchange ACFDT corr.  =        -1.01038714  see jH, gK, PRB 81, 115126


--------------------------------------------------------------------------------------------------------




----------------------------------------- Iteration    1(   7)  ---------------------------------------


    POTLOK:  cpu time   19.2611: real time   19.3136
    SETDIJ:  cpu time    0.1443: real time    0.1446
    TRIAL :  cpu time   21.3645: real time   21.4668
    CORREC:  cpu time   36.3421: real time   36.4866
    CHARGE:  cpu time    2.3104: real time    2.3210
    --------------------------------------------
      LOOP:  cpu time   79.4289: real time   79.7421

 eigenvalue-minimisations  :     0
 total energy-change (2. order) :-0.2018759E+02  (-0.8657836E+01)
 number of electron      10.0000000 magnetization 
 augmentation part        0.0667784 magnetization 

 Free energy of the ion-electron system (eV)
  ---------------------------------------------------
  alpha Z        PSCENC =         0.00730783
  Ewald energy   TEWEN  =       295.26350922
  -Hartree energ DENC   =      -215.87264640
  -exchange      EXHF   =        63.52326161
  -V(xc)+E(xc)   XCENC  =         0.00000000
  PAW double counting   =      5650.00446880    -5650.42842077
  entropy T*S    EENTRO =        -0.00158618
  eigenvalues    EBANDS =      -372.30805308
  atomic energy  EATOM  =       290.43199289
  ---------------------------------------------------
  free energy    TOTEN  =        60.60743421 eV

  energy without entropy =       60.60902038  energy(sigma->0) =       60.60822729
  exchange ACFDT corr.  =        -0.73347003  see jH, gK, PRB 81, 115126


--------------------------------------------------------------------------------------------------------




----------------------------------------- Iteration    1(   8)  ---------------------------------------


    POTLOK:  cpu time   19.2585: real time   19.3107
    SETDIJ:  cpu time    0.1440: real time    0.1443
    TRIAL :  cpu time   17.2042: real time   17.2941
    CORREC:  cpu time   36.1546: real time   36.2995
    CHARGE:  cpu time    2.3242: real time    2.3344
    --------------------------------------------
      LOOP:  cpu time   75.0921: real time   75.3927

 eigenvalue-minimisations  :     0
 total energy-change (2. order) :-0.7819009E+01  (-0.1140080E+02)
 number of electron      10.0000000 magnetization 
 augmentation part        0.0580978 magnetization 

 Free energy of the ion-electron system (eV)
  ---------------------------------------------------
  alpha Z        PSCENC =         0.00730783
  Ewald energy   TEWEN  =       295.26350922
  -Hartree energ DENC   =      -235.24389807
  -exchange      EXHF   =        68.07729340
  -V(xc)+E(xc)   XCENC  =         0.00000000
  PAW double counting   =      1679.22678842    -1679.56529070
  entropy T*S    EENTRO =        -0.00000000
  eigenvalues    EBANDS =      -365.40769142
  atomic energy  EATOM  =       290.43199289
  ---------------------------------------------------
  free energy    TOTEN  =        52.78842538 eV

  energy without entropy =       52.78842538  energy(sigma->0) =       52.78842538
  exchange ACFDT corr.  =        -0.05726729  see jH, gK, PRB 81, 115126


--------------------------------------------------------------------------------------------------------




----------------------------------------- Iteration    1(   9)  ---------------------------------------


    POTLOK:  cpu time   19.2247: real time   19.2772
    SETDIJ:  cpu time    0.1430: real time    0.1436
    TRIAL :  cpu time   17.1041: real time   17.2665
    CORREC:  cpu time   36.1140: real time   36.2569
    CHARGE:  cpu time    2.3202: real time    2.3302
    --------------------------------------------
      LOOP:  cpu time   74.9083: real time   75.2791

 eigenvalue-minimisations  :     0
 total energy-change (2. order) :-0.1193891E+02  (-0.1943293E+02)
 number of electron      10.0000000 magnetization 
 augmentation part        0.0948991 magnetization 

 Free energy of the ion-electron system (eV)
  ---------------------------------------------------
  alpha Z        PSCENC =         0.00730783
  Ewald energy   TEWEN  =       295.26350922
  -Hartree energ DENC   =      -277.40151864
  -exchange      EXHF   =        72.81349834
  -V(xc)+E(xc)   XCENC  =         0.00000000
  PAW double counting   =      1576.11787268    -1576.52135931
  entropy T*S    EENTRO =        -0.00000000
  eigenvalues    EBANDS =      -339.86179135
  atomic energy  EATOM  =       290.43199289
  ---------------------------------------------------
  free energy    TOTEN  =        40.84951166 eV

  energy without entropy =       40.84951166  energy(sigma->0) =       40.84951166
  exchange ACFDT corr.  =        -0.00000000  see jH, gK, PRB 81, 115126


--------------------------------------------------------------------------------------------------------




----------------------------------------- Iteration    1(  10)  ---------------------------------------


    POTLOK:  cpu time   19.3014: real time   19.3542
    SETDIJ:  cpu time    0.1427: real time    0.1430
    TRIAL :  cpu time   17.0757: real time   17.1662
    CORREC:  cpu time   36.1109: real time   36.2543
    CHARGE:  cpu time    2.3232: real time    2.3338
    --------------------------------------------
      LOOP:  cpu time   74.9572: real time   75.2573

 eigenvalue-minimisations  :     0
 total energy-change (2. order) :-0.1941271E+02  (-0.1429303E+02)
 number of electron      10.0000000 magnetization 
 augmentation part        0.0434039 magnetization 

 Free energy of the ion-electron system (eV)
  ---------------------------------------------------
  alpha Z        PSCENC =         0.00730783
  Ewald energy   TEWEN  =       295.26350922
  -Hartree energ DENC   =      -363.35404623
  -exchange      EXHF   =        80.38595446
  -V(xc)+E(xc)   XCENC  =         0.00000000
  PAW double counting   =      3876.17405677    -3876.80859188
  entropy T*S    EENTRO =        -0.00000000
  eigenvalues    EBANDS =      -280.66337739
  atomic energy  EATOM  =       290.43199289
  ---------------------------------------------------
  free energy    TOTEN  =        21.43680566 eV

  energy without entropy =       21.43680566  energy(sigma->0) =       21.43680566
  exchange ACFDT corr.  =         0.00000000  see jH, gK, PRB 81, 115126


--------------------------------------------------------------------------------------------------------




----------------------------------------- Iteration    1(  11)  ---------------------------------------


    POTLOK:  cpu time   19.2743: real time   19.3269
    SETDIJ:  cpu time    0.1429: real time    0.1433
    TRIAL :  cpu time   17.0589: real time   17.1486
    CORREC:  cpu time   36.1924: real time   36.3369
    CHARGE:  cpu time    2.3176: real time    2.3277
    --------------------------------------------
      LOOP:  cpu time   74.9883: real time   75.2884

 eigenvalue-minimisations  :     0
 total energy-change (2. order) :-0.1192843E+02  (-0.1083896E+02)
 number of electron      10.0000000 magnetization 
 augmentation part        0.0110013 magnetization 

 Free energy of the ion-electron system (eV)
  ---------------------------------------------------
  alpha Z        PSCENC =         0.00730783
  Ewald energy   TEWEN  =       295.26350922
  -Hartree energ DENC   =      -399.81500631
  -exchange      EXHF   =        83.45539996
  -V(xc)+E(xc)   XCENC  =         0.00000000
  PAW double counting   =      1376.92672026    -1377.40517494
  entropy T*S    EENTRO =        -0.00000000
  eigenvalues    EBANDS =      -259.35637763
  atomic energy  EATOM  =       290.43199289
  ---------------------------------------------------
  free energy    TOTEN  =         9.50837127 eV

  energy without entropy =        9.50837127  energy(sigma->0) =        9.50837127
  exchange ACFDT corr.  =         0.00000000  see jH, gK, PRB 81, 115126


--------------------------------------------------------------------------------------------------------




----------------------------------------- Iteration    1(  12)  ---------------------------------------


    POTLOK:  cpu time   19.2660: real time   19.3185
    SETDIJ:  cpu time    0.1428: real time    0.1432
    TRIAL :  cpu time   17.1511: real time   17.2412
    CORREC:  cpu time   36.2695: real time   36.4142
    CHARGE:  cpu time    2.3108: real time    2.3209
    --------------------------------------------
      LOOP:  cpu time   75.1429: real time   75.4432

 eigenvalue-minimisations  :     0
 total energy-change (2. order) :-0.1084236E+02  (-0.9429967E+01)
 number of electron      10.0000000 magnetization 
 augmentation part        0.0578738 magnetization 

 Free energy of the ion-electron system (eV)
  ---------------------------------------------------
  alpha Z        PSCENC =         0.00730783
  Ewald energy   TEWEN  =       295.26350922
  -Hartree energ DENC   =      -414.73353799
  -exchange      EXHF   =        83.00934127
  -V(xc)+E(xc)   XCENC  =         0.00000000
  PAW double counting   =       632.31958015     -632.66064371
  entropy T*S    EENTRO =        -0.00000000
  eigenvalues    EBANDS =      -254.97153490
  atomic energy  EATOM  =       290.43199289
  ---------------------------------------------------
  free energy    TOTEN  =        -1.33398524 eV

  energy without entropy =       -1.33398524  energy(sigma->0) =       -1.33398524
  exchange ACFDT corr.  =         0.00000000  see jH, gK, PRB 81, 115126


--------------------------------------------------------------------------------------------------------




----------------------------------------- Iteration    1(  13)  ---------------------------------------


    POTLOK:  cpu time   19.2803: real time   19.3332
    SETDIJ:  cpu time    0.1428: real time    0.1431
    TRIAL :  cpu time   17.0821: real time   17.1771
    CORREC:  cpu time   36.2987: real time   36.4435
    CHARGE:  cpu time    2.3217: real time    2.3323
    --------------------------------------------
      LOOP:  cpu time   75.1297: real time   75.4359

 eigenvalue-minimisations  :     0
 total energy-change (2. order) :-0.1026156E+02  (-0.9295251E+01)
 number of electron      10.0000000 magnetization 
 augmentation part        0.0096156 magnetization 

 Free energy of the ion-electron system (eV)
  ---------------------------------------------------
  alpha Z        PSCENC =         0.00730783
  Ewald energy   TEWEN  =       295.26350922
  -Hartree energ DENC   =      -441.40017236
  -exchange      EXHF   =        84.31121868
  -V(xc)+E(xc)   XCENC  =         0.00000000
  PAW double counting   =      1922.43494910    -1922.84502595
  entropy T*S    EENTRO =        -0.00000000
  eigenvalues    EBANDS =      -239.79932839
  atomic energy  EATOM  =       290.43199289
  ---------------------------------------------------
  free energy    TOTEN  =       -11.59554899 eV

  energy without entropy =      -11.59554899  energy(sigma->0) =      -11.59554899
  exchange ACFDT corr.  =         0.00000000  see jH, gK, PRB 81, 115126


--------------------------------------------------------------------------------------------------------




----------------------------------------- Iteration    1(  14)  ---------------------------------------


    POTLOK:  cpu time   19.2624: real time   19.3149
    SETDIJ:  cpu time    0.1434: real time    0.1438
    TRIAL :  cpu time   17.1232: real time   17.2123
    CORREC:  cpu time   36.2118: real time   36.3573
    CHARGE:  cpu time    2.3213: real time    2.3316
    --------------------------------------------
      LOOP:  cpu time   75.0643: real time   75.3651

 eigenvalue-minimisations  :     0
 total energy-change (2. order) :-0.9858270E+01  (-0.7358950E+01)
 number of electron      10.0000000 magnetization 
 augmentation part        0.0147380 magnetization 

 Free energy of the ion-electron system (eV)
  ---------------------------------------------------
  alpha Z        PSCENC =         0.00730783
  Ewald energy   TEWEN  =       295.26350922
  -Hartree energ DENC   =      -475.92212553
  -exchange      EXHF   =        88.59237756
  -V(xc)+E(xc)   XCENC  =         0.00000000
  PAW double counting   =       426.28137121     -426.52060179
  entropy T*S    EENTRO =        -0.00000000
  eigenvalues    EBANDS =      -219.58764999
  atomic energy  EATOM  =       290.43199289
  ---------------------------------------------------
  free energy    TOTEN  =       -21.45381861 eV

  energy without entropy =      -21.45381861  energy(sigma->0) =      -21.45381861
  exchange ACFDT corr.  =         0.00000000  see jH, gK, PRB 81, 115126


--------------------------------------------------------------------------------------------------------




----------------------------------------- Iteration    1(  15)  ---------------------------------------


    POTLOK:  cpu time   19.2450: real time   19.2974
    SETDIJ:  cpu time    0.1430: real time    0.1437
    TRIAL :  cpu time   17.1141: real time   17.2046
    CORREC:  cpu time   36.1905: real time   36.3335
    CHARGE:  cpu time    2.3203: real time    2.3306
    --------------------------------------------
      LOOP:  cpu time   75.0154: real time   75.3150

 eigenvalue-minimisations  :     0
 total energy-change (2. order) :-0.7923000E+01  (-0.5219240E+01)
 number of electron      10.0000000 magnetization 
 augmentation part        0.0471256 magnetization 

 Free energy of the ion-electron system (eV)
  ---------------------------------------------------
  alpha Z        PSCENC =         0.00730783
  Ewald energy   TEWEN  =       295.26350922
  -Hartree energ DENC   =      -508.59799199
  -exchange      EXHF   =        93.90885786
  -V(xc)+E(xc)   XCENC  =         0.00000000
  PAW double counting   =       389.71870109     -389.95467155
  entropy T*S    EENTRO =        -0.00000000
  eigenvalues    EBANDS =      -200.15452380
  atomic energy  EATOM  =       290.43199289
  ---------------------------------------------------
  free energy    TOTEN  =       -29.37681846 eV

  energy without entropy =      -29.37681846  energy(sigma->0) =      -29.37681846
  exchange ACFDT corr.  =         0.00000000  see jH, gK, PRB 81, 115126


--------------------------------------------------------------------------------------------------------




----------------------------------------- Iteration    1(  16)  ---------------------------------------


    POTLOK:  cpu time   19.2848: real time   19.3377
    SETDIJ:  cpu time    0.1430: real time    0.1434
    TRIAL :  cpu time   17.0328: real time   17.1226
    CORREC:  cpu time   36.3290: real time   36.4735
    CHARGE:  cpu time    2.3193: real time    2.3294
    --------------------------------------------
      LOOP:  cpu time   75.1144: real time   75.4145

 eigenvalue-minimisations  :     0
 total energy-change (2. order) :-0.5681701E+01  (-0.2772400E+01)
 number of electron      10.0000000 magnetization 
 augmentation part        0.0152920 magnetization 

 Free energy of the ion-electron system (eV)
  ---------------------------------------------------
  alpha Z        PSCENC =         0.00730783
  Ewald energy   TEWEN  =       295.26350922
  -Hartree energ DENC   =      -535.05157701
  -exchange      EXHF   =        98.31589115
  -V(xc)+E(xc)   XCENC  =         0.00000000
  PAW double counting   =       846.83932453     -847.15356292
  entropy T*S    EENTRO =        -0.00000000
  eigenvalues    EBANDS =      -183.71140472
  atomic energy  EATOM  =       290.43199289
  ---------------------------------------------------
  free energy    TOTEN  =       -35.05851904 eV

  energy without entropy =      -35.05851904  energy(sigma->0) =      -35.05851904
  exchange ACFDT corr.  =         0.00000000  see jH, gK, PRB 81, 115126


--------------------------------------------------------------------------------------------------------




----------------------------------------- Iteration    1(  17)  ---------------------------------------


    POTLOK:  cpu time   19.2906: real time   19.3432
    SETDIJ:  cpu time    0.1430: real time    0.1433
    TRIAL :  cpu time   17.0551: real time   17.1456
    CORREC:  cpu time   36.1854: real time   36.3305
    CHARGE:  cpu time    2.3179: real time    2.3282
    --------------------------------------------
      LOOP:  cpu time   74.9953: real time   75.2973

 eigenvalue-minimisations  :     0
 total energy-change (2. order) :-0.2919917E+01  (-0.1242701E+01)
 number of electron      10.0000000 magnetization 
 augmentation part        0.0443299 magnetization 

 Free energy of the ion-electron system (eV)
  ---------------------------------------------------
  alpha Z        PSCENC =         0.00730783
  Ewald energy   TEWEN  =       295.26350922
  -Hartree energ DENC   =      -545.06550748
  -exchange      EXHF   =       100.21557439
  -V(xc)+E(xc)   XCENC  =         0.00000000
  PAW double counting   =       314.41392732     -314.66228067
  entropy T*S    EENTRO =        -0.00000000
  eigenvalues    EBANDS =      -178.58295990
  atomic energy  EATOM  =       290.43199289
  ---------------------------------------------------
  free energy    TOTEN  =       -37.97843640 eV

  energy without entropy =      -37.97843640  energy(sigma->0) =      -37.97843640
  exchange ACFDT corr.  =        -0.00000000  see jH, gK, PRB 81, 115126


--------------------------------------------------------------------------------------------------------




----------------------------------------- Iteration    1(  18)  ---------------------------------------


    POTLOK:  cpu time   19.2854: real time   19.3383
    SETDIJ:  cpu time    0.1428: real time    0.1431
    TRIAL :  cpu time   17.1227: real time   17.2156
    CORREC:  cpu time   36.3034: real time   36.4479
    CHARGE:  cpu time    2.3194: real time    2.3298
    --------------------------------------------
      LOOP:  cpu time   75.1785: real time   75.4823

 eigenvalue-minimisations  :     0
 total energy-change (2. order) :-0.1273375E+01  (-0.3834476E+00)
 number of electron      10.0000000 magnetization 
 augmentation part        0.0314932 magnetization 

 Free energy of the ion-electron system (eV)
  ---------------------------------------------------
  alpha Z        PSCENC =         0.00730783
  Ewald energy   TEWEN  =       295.26350922
  -Hartree energ DENC   =      -547.50498609
  -exchange      EXHF   =       100.34509196
  -V(xc)+E(xc)   XCENC  =         0.00000000
  PAW double counting   =       616.34431602     -616.66108726
  entropy T*S    EENTRO =        -0.00000000
  eigenvalues    EBANDS =      -177.47795548
  atomic energy  EATOM  =       290.43199289
  ---------------------------------------------------
  free energy    TOTEN  =       -39.25181091 eV

  energy without entropy =      -39.25181091  energy(sigma->0) =      -39.25181091
  exchange ACFDT corr.  =         0.00000000  see jH, gK, PRB 81, 115126


--------------------------------------------------------------------------------------------------------




----------------------------------------- Iteration    1(  19)  ---------------------------------------


    POTLOK:  cpu time   19.3009: real time   19.3535
    SETDIJ:  cpu time    0.1437: real time    0.1441
    TRIAL :  cpu time   17.0910: real time   17.1817
    CORREC:  cpu time   36.2472: real time   36.3919
    CHARGE:  cpu time    2.3143: real time    2.3247
    --------------------------------------------
      LOOP:  cpu time   75.1007: real time   75.4022

 eigenvalue-minimisations  :     0
 total energy-change (2. order) :-0.3850633E+00  (-0.1619091E+00)
 number of electron      10.0000000 magnetization 
 augmentation part        0.0336180 magnetization 

 Free energy of the ion-electron system (eV)
  ---------------------------------------------------
  alpha Z        PSCENC =         0.00730783
  Ewald energy   TEWEN  =       295.26350922
  -Hartree energ DENC   =      -545.54580009
  -exchange      EXHF   =        99.99769139
  -V(xc)+E(xc)   XCENC  =         0.00000000
  PAW double counting   =       419.22187857     -419.50753106
  entropy T*S    EENTRO =        -0.00000000
  eigenvalues    EBANDS =      -179.50592299
  atomic energy  EATOM  =       290.43199289
  ---------------------------------------------------
  free energy    TOTEN  =       -39.63687424 eV

  energy without entropy =      -39.63687424  energy(sigma->0) =      -39.63687424
  exchange ACFDT corr.  =         0.00000000  see jH, gK, PRB 81, 115126


--------------------------------------------------------------------------------------------------------




----------------------------------------- Iteration    1(  20)  ---------------------------------------


    POTLOK:  cpu time   19.2747: real time   19.3272
    SETDIJ:  cpu time    0.1436: real time    0.1443
    TRIAL :  cpu time   17.5335: real time   17.6243
    CORREC:  cpu time   37.2689: real time   37.4158
    CHARGE:  cpu time    2.3524: real time    2.3628
    --------------------------------------------
      LOOP:  cpu time   76.5767: real time   76.8806

 eigenvalue-minimisations  :     0
 total energy-change (2. order) :-0.1571344E+00  (-0.7929697E-01)
 number of electron      10.0000000 magnetization 
 augmentation part        0.0397045 magnetization 

 Free energy of the ion-electron system (eV)
  ---------------------------------------------------
  alpha Z        PSCENC =         0.00730783
  Ewald energy   TEWEN  =       295.26350922
  -Hartree energ DENC   =      -545.03068579
  -exchange      EXHF   =        99.83020921
  -V(xc)+E(xc)   XCENC  =         0.00000000
  PAW double counting   =       433.56508548     -433.85451031
  entropy T*S    EENTRO =        -0.00000000
  eigenvalues    EBANDS =      -180.00691719
  atomic energy  EATOM  =       290.43199289
  ---------------------------------------------------
  free energy    TOTEN  =       -39.79400866 eV

  energy without entropy =      -39.79400866  energy(sigma->0) =      -39.79400866
  exchange ACFDT corr.  =        -0.00000000  see jH, gK, PRB 81, 115126


--------------------------------------------------------------------------------------------------------




----------------------------------------- Iteration    1(  21)  ---------------------------------------


    POTLOK:  cpu time   20.1416: real time   20.1966
    SETDIJ:  cpu time    0.3004: real time    0.3012
    TRIAL :  cpu time   17.5925: real time   17.6838
    CORREC:  cpu time   37.3262: real time   37.4733
    CHARGE:  cpu time    2.3518: real time    2.3620
    --------------------------------------------
      LOOP:  cpu time   77.7184: real time   78.0253

 eigenvalue-minimisations  :     0
 total energy-change (2. order) :-0.7895703E-01  (-0.5233916E-01)
 number of electron      10.0000000 magnetization 
 augmentation part        0.0357643 magnetization 

 Free energy of the ion-electron system (eV)
  ---------------------------------------------------
  alpha Z        PSCENC =         0.00730783
  Ewald energy   TEWEN  =       295.26350922
  -Hartree energ DENC   =      -545.54872896
  -exchange      EXHF   =        99.84442875
  -V(xc)+E(xc)   XCENC  =         0.00000000
  PAW double counting   =       506.28999568     -506.59233810
  entropy T*S    EENTRO =        -0.00000000
  eigenvalues    EBANDS =      -179.56913300
  atomic energy  EATOM  =       290.43199289
  ---------------------------------------------------
  free energy    TOTEN  =       -39.87296569 eV

  energy without entropy =      -39.87296569  energy(sigma->0) =      -39.87296569
  exchange ACFDT corr.  =         0.00000000  see jH, gK, PRB 81, 115126


--------------------------------------------------------------------------------------------------------




----------------------------------------- Iteration    1(  22)  ---------------------------------------


    POTLOK:  cpu time   20.1463: real time   20.2012
    SETDIJ:  cpu time    0.2986: real time    0.2993
    TRIAL :  cpu time   17.7268: real time   17.8197
    CORREC:  cpu time   37.5042: real time   37.6523
    CHARGE:  cpu time    2.3053: real time    2.3154
    --------------------------------------------
      LOOP:  cpu time   77.9856: real time   78.2953

 eigenvalue-minimisations  :     0
 total energy-change (2. order) :-0.5256092E-01  (-0.2608717E-01)
 number of electron      10.0000000 magnetization 
 augmentation part        0.0356123 magnetization 

 Free energy of the ion-electron system (eV)
  ---------------------------------------------------
  alpha Z        PSCENC =         0.00730783
  Ewald energy   TEWEN  =       295.26350922
  -Hartree energ DENC   =      -545.90583418
  -exchange      EXHF   =        99.91306740
  -V(xc)+E(xc)   XCENC  =         0.00000000
  PAW double counting   =       425.57921710     -425.87093065
  entropy T*S    EENTRO =        -0.00000000
  eigenvalues    EBANDS =      -179.34385621
  atomic energy  EATOM  =       290.43199289
  ---------------------------------------------------
  free energy    TOTEN  =       -39.92552661 eV

  energy without entropy =      -39.92552661  energy(sigma->0) =      -39.92552661
  exchange ACFDT corr.  =         0.00000000  see jH, gK, PRB 81, 115126


--------------------------------------------------------------------------------------------------------




----------------------------------------- Iteration    1(  23)  ---------------------------------------


    POTLOK:  cpu time   20.2221: real time   20.2776
    SETDIJ:  cpu time    0.2990: real time    0.2997
    TRIAL :  cpu time   17.6295: real time   17.7210
    CORREC:  cpu time   37.5578: real time   37.7044
    CHARGE:  cpu time    2.3096: real time    2.3201
    --------------------------------------------
      LOOP:  cpu time   78.0720: real time   78.3786

 eigenvalue-minimisations  :     0
 total energy-change (2. order) :-0.2626329E-01  (-0.1530044E-01)
 number of electron      10.0000000 magnetization 
 augmentation part        0.0359713 magnetization 

 Free energy of the ion-electron system (eV)
  ---------------------------------------------------
  alpha Z        PSCENC =         0.00730783
  Ewald energy   TEWEN  =       295.26350922
  -Hartree energ DENC   =      -546.21647437
  -exchange      EXHF   =        99.96535334
  -V(xc)+E(xc)   XCENC  =         0.00000000
  PAW double counting   =       429.50913868     -429.80064139
  entropy T*S    EENTRO =        -0.00000000
  eigenvalues    EBANDS =      -179.11197610
  atomic energy  EATOM  =       290.43199289
  ---------------------------------------------------
  free energy    TOTEN  =       -39.95178990 eV

  energy without entropy =      -39.95178990  energy(sigma->0) =      -39.95178990
  exchange ACFDT corr.  =        -0.00000000  see jH, gK, PRB 81, 115126


--------------------------------------------------------------------------------------------------------




----------------------------------------- Iteration    1(  24)  ---------------------------------------


    POTLOK:  cpu time   20.2400: real time   20.2952
    SETDIJ:  cpu time    0.2964: real time    0.2971
    TRIAL :  cpu time   17.7826: real time   17.8746
    CORREC:  cpu time   37.6373: real time   37.7853
    CHARGE:  cpu time    2.3071: real time    2.3174
    --------------------------------------------
      LOOP:  cpu time   78.3142: real time   78.6235

 eigenvalue-minimisations  :     0
 total energy-change (2. order) :-0.1530035E-01  (-0.8406501E-02)
 number of electron      10.0000000 magnetization 
 augmentation part        0.0351216 magnetization 

 Free energy of the ion-electron system (eV)
  ---------------------------------------------------
  alpha Z        PSCENC =         0.00730783
  Ewald energy   TEWEN  =       295.26350922
  -Hartree energ DENC   =      -546.22511954
  -exchange      EXHF   =        99.97214922
  -V(xc)+E(xc)   XCENC  =         0.00000000
  PAW double counting   =       439.94692589     -440.23969632
  entropy T*S    EENTRO =        -0.00000000
  eigenvalues    EBANDS =      -179.12415945
  atomic energy  EATOM  =       290.43199289
  ---------------------------------------------------
  free energy    TOTEN  =       -39.96709025 eV

  energy without entropy =      -39.96709025  energy(sigma->0) =      -39.96709025
  exchange ACFDT corr.  =         0.00000000  see jH, gK, PRB 81, 115126


--------------------------------------------------------------------------------------------------------




----------------------------------------- Iteration    1(  25)  ---------------------------------------


    POTLOK:  cpu time   20.1984: real time   20.2538
    SETDIJ:  cpu time    0.2970: real time    0.2977
    TRIAL :  cpu time   17.6109: real time   17.7019
    CORREC:  cpu time   37.4437: real time   37.5915
    CHARGE:  cpu time    2.3005: real time    2.3109
    --------------------------------------------
      LOOP:  cpu time   77.8987: real time   78.2070

 eigenvalue-minimisations  :     0
 total energy-change (2. order) :-0.8415866E-02  (-0.4156786E-02)
 number of electron      10.0000000 magnetization 
 augmentation part        0.0341759 magnetization 

 Free energy of the ion-electron system (eV)
  ---------------------------------------------------
  alpha Z        PSCENC =         0.00730783
  Ewald energy   TEWEN  =       295.26350922
  -Hartree energ DENC   =      -545.96083380
  -exchange      EXHF   =        99.94382026
  -V(xc)+E(xc)   XCENC  =         0.00000000
  PAW double counting   =       420.99494268     -421.28618634
  entropy T*S    EENTRO =        -0.00000000
  eigenvalues    EBANDS =      -179.37005885
  atomic energy  EATOM  =       290.43199289
  ---------------------------------------------------
  free energy    TOTEN  =       -39.97550612 eV

  energy without entropy =      -39.97550612  energy(sigma->0) =      -39.97550612
  exchange ACFDT corr.  =         0.00000000  see jH, gK, PRB 81, 115126


--------------------------------------------------------------------------------------------------------




----------------------------------------- Iteration    1(  26)  ---------------------------------------


    POTLOK:  cpu time   20.0346: real time   20.0893
    SETDIJ:  cpu time    0.2967: real time    0.2974
    TRIAL :  cpu time   17.7459: real time   17.8379
    CORREC:  cpu time   37.4169: real time   37.5633
    CHARGE:  cpu time    2.3057: real time    2.3162
    --------------------------------------------
      LOOP:  cpu time   77.8521: real time   78.1599

 eigenvalue-minimisations  :     0
 total energy-change (2. order) :-0.4155841E-02  (-0.1716247E-02)
 number of electron      10.0000000 magnetization 
 augmentation part        0.0339479 magnetization 

 Free energy of the ion-electron system (eV)
  ---------------------------------------------------
  alpha Z        PSCENC =         0.00730783
  Ewald energy   TEWEN  =       295.26350922
  -Hartree energ DENC   =      -545.77235209
  -exchange      EXHF   =        99.92361838
  -V(xc)+E(xc)   XCENC  =         0.00000000
  PAW double counting   =       415.45504895     -415.74495617
  entropy T*S    EENTRO =        -0.00000000
  eigenvalues    EBANDS =      -179.54383097
  atomic energy  EATOM  =       290.43199289
  ---------------------------------------------------
  free energy    TOTEN  =       -39.97966196 eV

  energy without entropy =      -39.97966196  energy(sigma->0) =      -39.97966196
  exchange ACFDT corr.  =         0.00000000  see jH, gK, PRB 81, 115126


--------------------------------------------------------------------------------------------------------




----------------------------------------- Iteration    1(  27)  ---------------------------------------


    POTLOK:  cpu time   20.0699: real time   20.1247
    SETDIJ:  cpu time    0.2968: real time    0.2975
    TRIAL :  cpu time   17.7154: real time   17.8073
    CORREC:  cpu time   37.3810: real time   37.5280
    CHARGE:  cpu time    2.3046: real time    2.3148
    --------------------------------------------
      LOOP:  cpu time   77.8176: real time   78.1253

 eigenvalue-minimisations  :     0
 total energy-change (2. order) :-0.1717719E-02  (-0.1119698E-02)
 number of electron      10.0000000 magnetization 
 augmentation part        0.0339338 magnetization 

 Free energy of the ion-electron system (eV)
  ---------------------------------------------------
  alpha Z        PSCENC =         0.00730783
  Ewald energy   TEWEN  =       295.26350922
  -Hartree energ DENC   =      -545.77097517
  -exchange      EXHF   =        99.92606820
  -V(xc)+E(xc)   XCENC  =         0.00000000
  PAW double counting   =       417.98068816     -418.27065368
  entropy T*S    EENTRO =        -0.00000000
  eigenvalues    EBANDS =      -179.54931713
  atomic energy  EATOM  =       290.43199289
  ---------------------------------------------------
  free energy    TOTEN  =       -39.98137968 eV

  energy without entropy =      -39.98137968  energy(sigma->0) =      -39.98137968
  exchange ACFDT corr.  =         0.00000000  see jH, gK, PRB 81, 115126


--------------------------------------------------------------------------------------------------------




----------------------------------------- Iteration    1(  28)  ---------------------------------------


    POTLOK:  cpu time   19.9142: real time   19.9687
    SETDIJ:  cpu time    0.2963: real time    0.2971
    TRIAL :  cpu time   17.6830: real time   17.7744
    CORREC:  cpu time   37.1770: real time   37.3234
    CHARGE:  cpu time    2.3054: real time    2.3159
    --------------------------------------------
      LOOP:  cpu time   77.4268: real time   77.7338

 eigenvalue-minimisations  :     0
 total energy-change (2. order) :-0.1116314E-02  (-0.6548796E-03)
 number of electron      10.0000000 magnetization 
 augmentation part        0.0337130 magnetization 

 Free energy of the ion-electron system (eV)
  ---------------------------------------------------
  alpha Z        PSCENC =         0.00730783
  Ewald energy   TEWEN  =       295.26350922
  -Hartree energ DENC   =      -545.89394034
  -exchange      EXHF   =        99.94626776
  -V(xc)+E(xc)   XCENC  =         0.00000000
  PAW double counting   =       416.69176023     -416.98215798
  entropy T*S    EENTRO =        -0.00000000
  eigenvalues    EBANDS =      -179.44723559
  atomic energy  EATOM  =       290.43199289
  ---------------------------------------------------
  free energy    TOTEN  =       -39.98249599 eV

  energy without entropy =      -39.98249599  energy(sigma->0) =      -39.98249599
  exchange ACFDT corr.  =         0.00000000  see jH, gK, PRB 81, 115126


--------------------------------------------------------------------------------------------------------




----------------------------------------- Iteration    1(  29)  ---------------------------------------


    POTLOK:  cpu time   19.7777: real time   19.8314
    SETDIJ:  cpu time    0.2971: real time    0.2981
    TRIAL :  cpu time   17.6915: real time   17.7822
    CORREC:  cpu time   36.9139: real time   37.0600
    CHARGE:  cpu time    2.3273: real time    2.3374
    --------------------------------------------
      LOOP:  cpu time   77.0562: real time   77.3609

 eigenvalue-minimisations  :     0
 total energy-change (2. order) :-0.6542307E-03  (-0.5005538E-03)
 number of electron      10.0000000 magnetization 
 augmentation part        0.0332949 magnetization 

 Free energy of the ion-electron system (eV)
  ---------------------------------------------------
  alpha Z        PSCENC =         0.00730783
  Ewald energy   TEWEN  =       295.26350922
  -Hartree energ DENC   =      -545.98531435
  -exchange      EXHF   =        99.96136504
  -V(xc)+E(xc)   XCENC  =         0.00000000
  PAW double counting   =       412.24462025     -412.53480098
  entropy T*S    EENTRO =        -0.00000000
  eigenvalues    EBANDS =      -179.37183011
  atomic energy  EATOM  =       290.43199289
  ---------------------------------------------------
  free energy    TOTEN  =       -39.98315022 eV

  energy without entropy =      -39.98315022  energy(sigma->0) =      -39.98315022
  exchange ACFDT corr.  =         0.00000000  see jH, gK, PRB 81, 115126


--------------------------------------------------------------------------------------------------------




----------------------------------------- Iteration    1(  30)  ---------------------------------------


    POTLOK:  cpu time   19.4555: real time   19.5085
    SETDIJ:  cpu time    0.2997: real time    0.3007
    TRIAL :  cpu time   17.5875: real time   17.6784
    CORREC:  cpu time   36.5721: real time   36.7172
    CHARGE:  cpu time    2.3212: real time    2.3315
    --------------------------------------------
      LOOP:  cpu time   76.2811: real time   76.5833

 eigenvalue-minimisations  :     0
 total energy-change (2. order) :-0.4976484E-03  (-0.3240778E-03)
 number of electron      10.0000000 magnetization 
 augmentation part        0.0331888 magnetization 

 Free energy of the ion-electron system (eV)
  ---------------------------------------------------
  alpha Z        PSCENC =         0.00730783
  Ewald energy   TEWEN  =       295.26350922
  -Hartree energ DENC   =      -546.03432172
  -exchange      EXHF   =        99.96787772
  -V(xc)+E(xc)   XCENC  =         0.00000000
  PAW double counting   =       407.15745845     -407.44695292
  entropy T*S    EENTRO =        -0.00000000
  eigenvalues    EBANDS =      -179.33051935
  atomic energy  EATOM  =       290.43199289
  ---------------------------------------------------
  free energy    TOTEN  =       -39.98364787 eV

  energy without entropy =      -39.98364787  energy(sigma->0) =      -39.98364787
  exchange ACFDT corr.  =         0.00000000  see jH, gK, PRB 81, 115126


--------------------------------------------------------------------------------------------------------




----------------------------------------- Iteration    1(  31)  ---------------------------------------


    POTLOK:  cpu time   19.3019: real time   19.3549
    SETDIJ:  cpu time    0.2965: real time    0.2972
    TRIAL :  cpu time   17.5460: real time   17.6378
    CORREC:  cpu time   36.6310: real time   36.7775
    CHARGE:  cpu time    2.3168: real time    2.3271
    --------------------------------------------
      LOOP:  cpu time   76.1405: real time   76.4446

 eigenvalue-minimisations  :     0
 total energy-change (2. order) :-0.3239616E-03  (-0.3058662E-03)
 number of electron      10.0000000 magnetization 
 augmentation part        0.0331900 magnetization 

 Free energy of the ion-electron system (eV)
  ---------------------------------------------------
  alpha Z        PSCENC =         0.00730783
  Ewald energy   TEWEN  =       295.26350922
  -Hartree energ DENC   =      -546.04405733
  -exchange      EXHF   =        99.96667111
  -V(xc)+E(xc)   XCENC  =         0.00000000
  PAW double counting   =       405.80026172     -406.08968898
  entropy T*S    EENTRO =        -0.00000000
  eigenvalues    EBANDS =      -179.31996829
  atomic energy  EATOM  =       290.43199289
  ---------------------------------------------------
  free energy    TOTEN  =       -39.98397183 eV

  energy without entropy =      -39.98397183  energy(sigma->0) =      -39.98397183
  exchange ACFDT corr.  =         0.00000000  see jH, gK, PRB 81, 115126


--------------------------------------------------------------------------------------------------------




----------------------------------------- Iteration    1(  32)  ---------------------------------------


    POTLOK:  cpu time   19.2960: real time   19.3486
    SETDIJ:  cpu time    0.2978: real time    0.2988
    TRIAL :  cpu time   17.8082: real time   17.9003
    CORREC:  cpu time   36.6868: real time   36.8331
    CHARGE:  cpu time    2.3132: real time    2.3237
    --------------------------------------------
      LOOP:  cpu time   76.4510: real time   76.7567

 eigenvalue-minimisations  :     0
 total energy-change (2. order) :-0.3053662E-03  (-0.1863642E-03)
 number of electron      10.0000000 magnetization 
 augmentation part        0.0328408 magnetization 

 Free energy of the ion-electron system (eV)
  ---------------------------------------------------
  alpha Z        PSCENC =         0.00730783
  Ewald energy   TEWEN  =       295.26350922
  -Hartree energ DENC   =      -546.00740803
  -exchange      EXHF   =        99.95733801
  -V(xc)+E(xc)   XCENC  =         0.00000000
  PAW double counting   =       402.24708266     -402.53663251
  entropy T*S    EENTRO =        -0.00000000
  eigenvalues    EBANDS =      -179.34746726
  atomic energy  EATOM  =       290.43199289
  ---------------------------------------------------
  free energy    TOTEN  =       -39.98427720 eV

  energy without entropy =      -39.98427720  energy(sigma->0) =      -39.98427720
  exchange ACFDT corr.  =         0.00000000  see jH, gK, PRB 81, 115126


--------------------------------------------------------------------------------------------------------




----------------------------------------- Iteration    1(  33)  ---------------------------------------


    POTLOK:  cpu time   19.3254: real time   19.3780
    SETDIJ:  cpu time    0.2978: real time    0.2985
    TRIAL :  cpu time   17.5896: real time   17.6808
    CORREC:  cpu time   36.7618: real time   36.9072
    CHARGE:  cpu time    2.3056: real time    2.3157
    --------------------------------------------
      LOOP:  cpu time   76.3271: real time   76.6301

 eigenvalue-minimisations  :     0
 total energy-change (2. order) :-0.1863590E-03  (-0.1976985E-03)
 number of electron      10.0000000 magnetization 
 augmentation part        0.0323266 magnetization 

 Free energy of the ion-electron system (eV)
  ---------------------------------------------------
  alpha Z        PSCENC =         0.00730783
  Ewald energy   TEWEN  =       295.26350922
  -Hartree energ DENC   =      -545.97963459
  -exchange      EXHF   =        99.95267698
  -V(xc)+E(xc)   XCENC  =         0.00000000
  PAW double counting   =       398.06489561     -398.35380945
  entropy T*S    EENTRO =        -0.00000000
  eigenvalues    EBANDS =      -179.37140204
  atomic energy  EATOM  =       290.43199289
  ---------------------------------------------------
  free energy    TOTEN  =       -39.98446356 eV

  energy without entropy =      -39.98446356  energy(sigma->0) =      -39.98446356
  exchange ACFDT corr.  =         0.00000000  see jH, gK, PRB 81, 115126


--------------------------------------------------------------------------------------------------------




----------------------------------------- Iteration    1(  34)  ---------------------------------------


    POTLOK:  cpu time   19.4074: real time   19.4606
    SETDIJ:  cpu time    0.3032: real time    0.3039
    TRIAL :  cpu time   17.6689: real time   17.7609
    CORREC:  cpu time   36.7553: real time   36.9004
    CHARGE:  cpu time    2.3065: real time    2.3166
    --------------------------------------------
      LOOP:  cpu time   76.4913: real time   76.7956

 eigenvalue-minimisations  :     0
 total energy-change (2. order) :-0.1977742E-03  (-0.2781230E-03)
 number of electron      10.0000000 magnetization 
 augmentation part        0.0320941 magnetization 

 Free energy of the ion-electron system (eV)
  ---------------------------------------------------
  alpha Z        PSCENC =         0.00730783
  Ewald energy   TEWEN  =       295.26350922
  -Hartree energ DENC   =      -545.96748539
  -exchange      EXHF   =        99.95171657
  -V(xc)+E(xc)   XCENC  =         0.00000000
  PAW double counting   =       392.44827606     -392.73626826
  entropy T*S    EENTRO =        -0.00000000
  eigenvalues    EBANDS =      -179.38371026
  atomic energy  EATOM  =       290.43199289
  ---------------------------------------------------
  free energy    TOTEN  =       -39.98466133 eV

  energy without entropy =      -39.98466133  energy(sigma->0) =      -39.98466133
  exchange ACFDT corr.  =         0.00000000  see jH, gK, PRB 81, 115126


--------------------------------------------------------------------------------------------------------




----------------------------------------- Iteration    1(  35)  ---------------------------------------


    POTLOK:  cpu time   19.3846: real time   19.4376
    SETDIJ:  cpu time    0.2967: real time    0.2974
    TRIAL :  cpu time   17.6239: real time   17.7153
    CORREC:  cpu time   36.6117: real time   36.7564
    CHARGE:  cpu time    2.3081: real time    2.3188
    --------------------------------------------
      LOOP:  cpu time   76.2743: real time   76.5778

 eigenvalue-minimisations  :     0
 total energy-change (2. order) :-0.2779235E-03  (-0.1631680E-03)
 number of electron      10.0000000 magnetization 
 augmentation part        0.0317828 magnetization 

 Free energy of the ion-electron system (eV)
  ---------------------------------------------------
  alpha Z        PSCENC =         0.00730783
  Ewald energy   TEWEN  =       295.26350922
  -Hartree energ DENC   =      -546.00331278
  -exchange      EXHF   =        99.95799961
  -V(xc)+E(xc)   XCENC  =         0.00000000
  PAW double counting   =       386.68468533     -386.97256685
  entropy T*S    EENTRO =        -0.00000000
  eigenvalues    EBANDS =      -179.35455451
  atomic energy  EATOM  =       290.43199289
  ---------------------------------------------------
  free energy    TOTEN  =       -39.98493925 eV

  energy without entropy =      -39.98493925  energy(sigma->0) =      -39.98493925
  exchange ACFDT corr.  =         0.00000000  see jH, gK, PRB 81, 115126


--------------------------------------------------------------------------------------------------------




----------------------------------------- Iteration    1(  36)  ---------------------------------------


    POTLOK:  cpu time   19.2604: real time   19.3129
    SETDIJ:  cpu time    0.3033: real time    0.3040
    TRIAL :  cpu time   17.5905: real time   17.6824
    CORREC:  cpu time   36.3453: real time   36.4894
    CHARGE:  cpu time    2.3122: real time    2.3227
    --------------------------------------------
      LOOP:  cpu time   75.8609: real time   76.1634

 eigenvalue-minimisations  :     0
 total energy-change (2. order) :-0.1634911E-03  (-0.3248645E-03)
 number of electron      10.0000000 magnetization 
 augmentation part        0.0307578 magnetization 

 Free energy of the ion-electron system (eV)
  ---------------------------------------------------
  alpha Z        PSCENC =         0.00730783
  Ewald energy   TEWEN  =       295.26350922
  -Hartree energ DENC   =      -546.01181377
[...]


    POTLOK:  cpu time   18.6240: real time   18.6750
    SETDIJ:  cpu time    0.2998: real time    0.3005
    TRIAL :  cpu time   17.7396: real time   17.8323
    CORREC:  cpu time   36.0580: real time   36.2028
    CHARGE:  cpu time    2.3370: real time    2.3472
    --------------------------------------------
      LOOP:  cpu time   75.0945: real time   75.3959

 eigenvalue-minimisations  :     0
 total energy-change (2. order) :-0.2972581E-06  (-0.1080158E-06)
 number of electron      10.0000000 magnetization 
 augmentation part        0.0284575 magnetization 

 Free energy of the ion-electron system (eV)
  ---------------------------------------------------
  alpha Z        PSCENC =         0.00730783
  Ewald energy   TEWEN  =       295.26350922
  -Hartree energ DENC   =      -545.99364152
  -exchange      EXHF   =        99.97397465
  -V(xc)+E(xc)   XCENC  =         0.00000000
  PAW double counting   =       348.51478309     -348.79815256
  entropy T*S    EENTRO =        -0.00000000
  eigenvalues    EBANDS =      -179.38594137
  atomic energy  EATOM  =       290.43199289
  ---------------------------------------------------
  free energy    TOTEN  =       -39.98616776 eV

  energy without entropy =      -39.98616776  energy(sigma->0) =      -39.98616776
  exchange ACFDT corr.  =         0.00000000  see jH, gK, PRB 81, 115126


--------------------------------------------------------------------------------------------------------




----------------------------------------- Iteration    1(  59)  ---------------------------------------


    POTLOK:  cpu time   18.6252: real time   18.6761
    SETDIJ:  cpu time    0.2996: real time    0.3004
    TRIAL :  cpu time   17.8118: real time   17.9045
    CORREC:  cpu time   36.0745: real time   36.2179
    CHARGE:  cpu time    2.3316: real time    2.3426
    --------------------------------------------
      LOOP:  cpu time   75.1784: real time   75.4792

 eigenvalue-minimisations  :     0
 total energy-change (2. order) :-0.1079159E-06  (-0.7382561E-07)
 number of electron      10.0000000 magnetization 
 augmentation part        0.0284510 magnetization 

 Free energy of the ion-electron system (eV)
  ---------------------------------------------------
  alpha Z        PSCENC =         0.00730783
  Ewald energy   TEWEN  =       295.26350922
  -Hartree energ DENC   =      -545.99377820
  -exchange      EXHF   =        99.97402409
  -V(xc)+E(xc)   XCENC  =         0.00000000
  PAW double counting   =       348.49446447     -348.77782988
  entropy T*S    EENTRO =        -0.00000000
  eigenvalues    EBANDS =      -179.38585829
  atomic energy  EATOM  =       290.43199289
  ---------------------------------------------------
  free energy    TOTEN  =       -39.98616787 eV

  energy without entropy =      -39.98616787  energy(sigma->0) =      -39.98616787
  exchange ACFDT corr.  =         0.00000000  see jH, gK, PRB 81, 115126


--------------------------------------------------------------------------------------------------------




----------------------------------------- Iteration    1(  60)  ---------------------------------------


    POTLOK:  cpu time   18.6529: real time   18.7036
    SETDIJ:  cpu time    0.2964: real time    0.2974
    TRIAL :  cpu time   17.6549: real time   17.7469
    CORREC:  cpu time   36.0148: real time   36.1594
    CHARGE:  cpu time    2.3409: real time    2.3510
    --------------------------------------------
      LOOP:  cpu time   74.9922: real time   75.2934

 eigenvalue-minimisations  :     0
 total energy-change (2. order) :-0.7371972E-07  (-0.3748649E-07)
 number of electron      10.0000000 magnetization 
 augmentation part        0.0284502 magnetization 

 Free energy of the ion-electron system (eV)
  ---------------------------------------------------
  alpha Z        PSCENC =         0.00730783
  Ewald energy   TEWEN  =       295.26350922
  -Hartree energ DENC   =      -545.99392561
  -exchange      EXHF   =        99.97409604
  -V(xc)+E(xc)   XCENC  =         0.00000000
  PAW double counting   =       348.44933378     -348.73268923
  entropy T*S    EENTRO =        -0.00000000
  eigenvalues    EBANDS =      -179.38579285
  atomic energy  EATOM  =       290.43199289
  ---------------------------------------------------
  free energy    TOTEN  =       -39.98616794 eV

  energy without entropy =      -39.98616794  energy(sigma->0) =      -39.98616794
  exchange ACFDT corr.  =         0.00000000  see jH, gK, PRB 81, 115126


--------------------------------------------------------------------------------------------------------


  average scaling for gradient   0.1682


 average (electrostatic) potential at core
  the test charge radii are     0.5412  0.5531
  (the norm of the test charge is              1.0000)
       1 -90.7113       2 -90.7112       3 -24.5526       4 -24.5526
 
 
 
 E-fermi : -11.0285     XC(G=0):   0.0000     alpha+bet : -0.0062


 k-point     1 :       0.0000    0.0000    0.0000
  band No.  band energies     occupation 
      1     -27.9595      2.00000
      2     -20.9351      2.00000
      3     -18.5405      2.00000
      4     -11.1289      2.00000
      5     -11.1289      2.00000
      6       0.0059      0.00000
      7       0.2130      0.00000
      8       0.1268      0.00000
      9       0.1313      0.00000
     10       0.1701      0.00000
     11       0.1846      0.00000
     12       0.2614      0.00000


--------------------------------------------------------------------------------------------------------


 soft charge-density along one line, spin component           1
         0         1         2         3         4         5         6         7         8         9
 total charge-density along one line
 
 pseudopotential strength for first ion, spin component:           1
  9.989  -0.013  -0.041   0.000   0.000  -0.010   0.000   0.000
 -0.013  -0.109   0.683   0.000   0.000  -0.002  -0.000  -0.000
 -0.041   0.683   0.222   0.000   0.000  -0.001  -0.000  -0.000
  0.000   0.000   0.000  -3.761  -0.000  -0.000  -1.081   0.000
  0.000   0.000   0.000  -0.000  -3.761   0.000   0.000  -1.082
 -0.010  -0.002  -0.001  -0.000   0.000  -3.757   0.000  -0.000
  0.000  -0.000  -0.000  -1.081   0.000   0.000  27.830  -0.000
  0.000  -0.000  -0.000   0.000  -1.082  -0.000  -0.000  27.830
 -0.004   0.002   0.000   0.000  -0.000  -1.096  -0.000   0.000
 -0.000   0.000   0.000   0.848  -0.000  -0.000 -19.191   0.000
 -0.000   0.000   0.000  -0.000   0.848   0.000   0.000 -19.191
 -0.001  -0.002  -0.000  -0.000   0.000   0.858   0.000  -0.000
  0.000   0.000   0.000   0.001   0.000  -0.000  -0.019  -0.000
  0.000   0.000   0.000  -0.000  -0.000   0.000   0.000   0.000
  0.002   0.000   0.000   0.000  -0.000  -0.001  -0.000   0.000
 -0.000  -0.000  -0.000   0.000   0.001   0.000  -0.000  -0.019
 -0.003  -0.000  -0.000   0.000   0.000   0.001  -0.000   0.000
 -0.000   0.000  -0.000   0.003   0.000  -0.000   0.004   0.000
 -0.000  -0.000  -0.000  -0.000  -0.000   0.000  -0.000  -0.000
 -0.001   0.000   0.000   0.000  -0.000  -0.000   0.000  -0.000
  0.000  -0.000  -0.000   0.000   0.003  -0.000   0.000   0.004
  0.001  -0.000  -0.000   0.000  -0.000   0.001   0.000  -0.000
 total augmentation occupancy for first ion, spin component:           1
  1.472   0.072   0.211  -0.000  -0.000   0.101  -0.000  -0.000   0.014  -0.000  -0.000   0.006  -0.000  -0.000  -0.035   0.000
  0.072   0.004   0.005   0.001  -0.000  -0.027   0.000  -0.000  -0.001   0.000  -0.000  -0.000   0.000   0.000  -0.002   0.000
  0.211   0.005   0.065  -0.002   0.001   0.182  -0.000   0.000   0.012  -0.000   0.000   0.004  -0.000  -0.000  -0.006   0.000
 -0.000   0.001  -0.002   0.868  -0.000  -0.000   0.033   0.000  -0.000   0.008   0.000  -0.000   0.036   0.000   0.000   0.000
 -0.000  -0.000   0.001  -0.000   0.868   0.001  -0.000   0.033   0.000  -0.000   0.008   0.000  -0.000  -0.000   0.000   0.036
  0.101  -0.027   0.182  -0.000   0.001   1.340  -0.000   0.000   0.078  -0.000   0.000   0.025  -0.000   0.000  -0.007  -0.000
 -0.000   0.000  -0.000   0.033  -0.000  -0.000   0.001   0.000  -0.000   0.000   0.000  -0.000   0.001   0.000   0.000   0.000
 -0.000  -0.000   0.000   0.000   0.033   0.000   0.000   0.001   0.000   0.000   0.000   0.000   0.000  -0.000   0.000   0.001
  0.014  -0.001   0.012  -0.000   0.000   0.078  -0.000   0.000   0.005  -0.000   0.000   0.001  -0.000   0.000  -0.001  -0.000
 -0.000   0.000  -0.000   0.008  -0.000  -0.000   0.000   0.000  -0.000   0.000   0.000  -0.000   0.000   0.000   0.000   0.000
 -0.000  -0.000   0.000   0.000   0.008   0.000   0.000   0.000   0.000   0.000   0.000   0.000   0.000  -0.000   0.000   0.000
  0.006  -0.000   0.004  -0.000   0.000   0.025  -0.000   0.000   0.001  -0.000   0.000   0.000  -0.000   0.000  -0.000  -0.000
 -0.000   0.000  -0.000   0.036  -0.000  -0.000   0.001   0.000  -0.000   0.000   0.000  -0.000   0.001   0.000   0.000   0.000
 -0.000   0.000  -0.000   0.000  -0.000   0.000   0.000  -0.000   0.000   0.000  -0.000   0.000   0.000   0.000   0.000  -0.000
 -0.035  -0.002  -0.006   0.000   0.000  -0.007   0.000   0.000  -0.001   0.000   0.000  -0.000   0.000   0.000   0.001  -0.000
  0.000   0.000   0.000   0.000   0.036  -0.000   0.000   0.001  -0.000   0.000   0.000  -0.000   0.000  -0.000  -0.000   0.001
  0.061   0.003   0.010   0.000  -0.000   0.013   0.000  -0.000   0.001  -0.000  -0.000   0.000  -0.000  -0.000  -0.001   0.000
  0.000  -0.000   0.000  -0.024   0.000   0.000  -0.001  -0.000   0.000  -0.000  -0.000   0.000  -0.001  -0.000  -0.000  -0.000
 -0.000  -0.000   0.000  -0.000   0.000   0.000  -0.000   0.000  -0.000  -0.000   0.000  -0.000  -0.000  -0.000   0.000   0.000
  0.024   0.001   0.004  -0.000  -0.000   0.006  -0.000  -0.000   0.000  -0.000  -0.000   0.000  -0.000  -0.000  -0.001   0.000
 -0.000  -0.000  -0.000  -0.000  -0.024   0.000  -0.000  -0.001   0.000  -0.000  -0.000   0.000  -0.000   0.000   0.000  -0.001
 -0.041  -0.002  -0.007  -0.000   0.000  -0.011  -0.000   0.000  -0.001   0.000   0.000  -0.000   0.000   0.000   0.001  -0.000


------------------------ aborting loop because EDIFF is reached ----------------------------------------


    FORLOC:  cpu time    1.1133: real time    1.1163
    FORHF :  cpu time   10.7855: real time   10.8176
    FORNL :  cpu time    0.7531: real time    0.7552
    FORCOR:  cpu time   17.2164: real time   17.2633
    OFIELD:  cpu time    0.0564: real time    0.0565

 VOLUME and BASIS-vectors are now :
 -----------------------------------------------------------------------------
  energy-cutoff  :     2000.00
  volume of cell :    42875.00
      direct lattice vectors                 reciprocal lattice vectors
    35.000000000  0.000000000  0.000000000     0.028571429  0.000000000  0.000000000
     0.000000000 35.000000000  0.000000000     0.000000000  0.028571429  0.000000000
     0.000000000  0.000000000 35.000000000     0.000000000  0.000000000  0.028571429

  length of vectors
    35.000000000 35.000000000 35.000000000     0.028571429  0.028571429  0.028571429


 FORCES acting on ions:
    Electron-Ion                     Ewald-Force                    Non-Local-Force
 -----------------------------------------------------------------------------------------------
   0.122E+03 -.134E-01 0.125E+00   -.117E+03 0.111E-01 -.148E+00   0.117E+01 0.875E-03 0.198E-01
   -.122E+03 0.593E-02 -.524E+00   0.117E+03 -.655E-02 0.472E+00   -.117E+01 0.450E-03 0.139E-01
   0.571E+02 -.256E-02 0.302E+00   -.635E+02 0.287E-02 -.333E+00   0.643E+01 -.248E-03 0.380E-01
   -.571E+02 0.676E-02 -.483E-02   0.635E+02 -.742E-02 0.886E-02   -.643E+01 0.839E-03 0.332E-02
 -----------------------------------------------------------------------------------------------
   0.145E-03 -.322E-02 -.102E+00   -.142E-13 -.867E-18 0.468E-16   0.127E-02 0.192E-02 0.751E-01
 
 
 POSITION                                       TOTAL-FORCE (eV/Angst)
 -----------------------------------------------------------------------------------
     34.39827     34.97143      0.38493         3.475257      0.000429      0.001144
      0.61011     34.97134      0.38816        -3.474416     -0.000139     -0.017296
     33.33626     34.97147      0.37901         0.337258     -0.000232      0.009033
      1.67214     34.97121      0.38797        -0.338099     -0.000059      0.007119
 -----------------------------------------------------------------------------------
    total drift:                                0.001227      0.001131      0.001653


--------------------------------------------------------------------------------------------------------



  FREE ENERGIE OF THE ION-ELECTRON SYSTEM (eV)
  ---------------------------------------------------
  free  energy   TOTEN  =       -39.98616794 eV

  energy  without entropy=      -39.98616794  energy(sigma->0) =      -39.98616794
 


--------------------------------------------------------------------------------------------------------


    POTLOK:  cpu time   18.9362: real time   18.9879


--------------------------------------------------------------------------------------------------------


     LOOP+:  cpu time 4981.3270: real time 5000.9332
    4ORBIT:  cpu time    0.0000: real time    0.0000

 total amount of memory used by VASP on root node  4601331. kBytes
========================================================================

   base      :      30000. kBytes
   nonl-proj :     226402. kBytes
   fftplans  :    1713006. kBytes
   grid      :    2553282. kBytes
   one-center:         11. kBytes
   HF        :         96. kBytes
   nonlr-proj:        165. kBytes
   wavefun   :      78369. kBytes
 
  
  
 General timing and accounting informations for this job:
 ========================================================
  
                  Total CPU time used (sec):     5913.304
                            User time (sec):     5400.952
                          System time (sec):      512.352
                         Elapsed time (sec):     5935.771
  
                   Maximum memory used (kb):     6811464.
                   Average memory used (kb):           0.
  
                          Minor page faults:      1613935
                          Major page faults:            5
                 Voluntary context switches:       644027
 
 PROFILE, used timers:      39
 =============================
 
 index                 routine                    time                            calls level
----------------------------------------------------------------------------------------------
    1    total_time                         5935.771418                                1   1
    2      w1_copy                               1.387677                            748   2
    3      fftwav_mpi                          166.452015                            625   2
    4      fftext_mpi                            0.501833                              3   2
    5      overl                                 0.001099                            491   2
    6      orth1                                 1.148047                            344   2
    7      lincom                                1.562737                            336   2
    8      eccp                                 24.509087                            510   2
    9      hamiltmu                             18.488008                             41   2
   10        vhamil                                3.692477                           60   3
   11        overl1                                0.000075                           60   3
   12        kinhamil                             10.218161                           60   3
   13          fftext_mpi                           10.103656                         60   4
   14      pdssyex_zheevx                        0.925785                            115   2
   15      fock_acc                            763.174250                            110   2
   16        w1_copy                               1.118424                          389   3
   17        fftwav_mpi                           52.870667                          389   3
   18        fock_charge_mu                       39.093691                          224   3
   19          racc0mu_hf                            0.289752                        224   4
   20        rpromu_hf                             1.278169                          224   3
   21        overl1                                0.000221                          165   3
   22        fftext_mpi                           17.500005                          165   3
   23      hamilt_local                         42.333014                            165   2
   24        vhamil                                9.961107                          165   3
   25        kinhamil                             32.371547                          165   3
   26          fftext_mpi                           32.057961                        165   4
   27      w1_dscal                              4.896916                            165   2
   28      eddiag                              810.755872                             55   2
   29        fock_acc                            760.563455                          110   3
   30          w1_copy                               0.764618                        387   4
   31          fftwav_mpi                           53.395389                        387   4
   32          fock_charge_mu                       38.831027                        222   4
   33            racc0mu_hf                            0.332419                      222   5
   34          rpromu_hf                             1.275482                        222   4
   35          overl1                                0.000237                        165   4
   36          fftext_mpi                           17.336377                        165   4
   37        fftwav_mpi                           42.106697                          165   3
   38        eccp                                  7.323668                          165   3
   39      rpro1_hf                              0.194077                             96   2
 
 Flat profile
 ============
 
             routine name                   CPU           calls
 ---------------------------------------------------------------
 total_time                           4099.441000           1
 fock_acc                             1300.273399         220
 fftwav_mpi                            314.824767        1566
 fftext_mpi                             77.499832         558
 fock_charge_mu                         77.302547         446
 eccp                                   31.832755         675
 vhamil                                 13.653584         225
 w1_dscal                                4.896916         165
 hamiltmu                                4.577295          41
 w1_copy                                 3.270719        1524
 rpromu_hf                               2.553651         446
 lincom                                  1.562737         336
 orth1                                   1.148047         344
 pdssyex_zheevx                          0.925785         115
 eddiag                                  0.762053          55
 racc0mu_hf                              0.622171         446
 kinhamil                                0.428090         225
 rpro1_hf                                0.194077          96
 overl                                   0.001099         491
 overl1                                  0.000533         390
 hamilt_local                            0.000360         165
 ---------------------------------------------------------------
  summed up times    5935.77141809464     
 
Profiling took   0.009060  0.004800  0.003505  0.003478 seconds
Profiling took   0.004939 seconds
