
 Primary working directories    : /scratch/sirous/753745/molpro.GNTEOf2rSd
 Secondary working directories  : /scratch/sirous/753745/molpro.GNTEOf2rSd
 Wavefunction directory         : /scratch/sirous/753745/
 Main file repository           : /scratch/sirous/753745/molpro.GNTEOf2rSd/

 id        : karlovklimes

 Nodes                      nprocs
 nc-07.cc.karlov.mff.cuni.cz    4

 Using customized tuning parameters: mindgm=1; mindgv=20; mindgc=4; mindgr=1; noblas=0; minvec=7
 default implementation of scratch files=sf  


 Variables initialized (934), CPU time= 0.01 sec
 ***,CH3C6H4CN+CF3CN+BF3
 memory,1000,m
 gdirect
 gthresh,energy=1.d-8,twoint=1.d-19,oneint=1.d-19,zero=1.d-15,orbital=1.d-8,grid=1.d-8,THROVL=1.d-8
 symmetry,nosym
 geomtyp=xyz
                                                                                 ! Geometry
 geometry={
 H1        0.02970387    4.68137746     -0.78501207
 H2        0.01365177    4.75327352     0.72944182
 C1        0.00000000    0.08825600     0.00000000
 O1        0.00000000    1.22720600     0.00000000
 O2        0.00000000    4.12720600     0.00000000
 }
 
 
 
 basis=av5z
 
 
 
                                                                                 ! Dimer Calculation
 {rks,pbe,accu=1.d-8;orbital,2101.2}
 eab_PBE=energy
 
 
                                                                                 !monomer A
 dummy,3,4;                                                                      ! NOW MONOMER B IS DUMMY
 {rks,pbe,accu=1.d-8;orbital,2201.2}
 ea_PBE=energy
                                                                                 !monomer B
 dummy,1,2,5;                                                                    !NOW MONOMER A IS DUMMY
 {rks,pbe,accu=1.d-8;orbital,2301.2}
 eb_PBE=energy
 
 E_AB_int=eab_PBE-ea_PBE-eb_PBE
 
 
 text,results in hartree
 show,E_AB_int
 
 Commands  initialized (763), CPU time= 0.01 sec, 617 directives.
 Default parameters read. Elapsed time= 0.36 sec

 Checking input...
 Passed
1


                                         ***  PROGRAM SYSTEM MOLPRO  ***
                                       Copyright, TTI GmbH Stuttgart, 2015
                                    Version 2019.2 linked Jun  8 2019 11:26:33


 **********************************************************************************************************************************
 LABEL *   CH3C6H4CN+CF3CN+BF3                                                           
  64 bit mpp version                                                                     DATE: 23-Jul-20          TIME: 10:06:13  
 **********************************************************************************************************************************

 SHA1:             8135a10abc80eafa5b3ae28ffc55be4890dc4c84
 **********************************************************************************************************************************

 THRESHOLDS:

 ZERO    =  1.00D-15  ONEINT  =  1.00D-19  TWOINT  =  1.00D-19  PREFAC  =  1.00D-14  XXXXXX  =  1.00D-09  EORDER  =  1.00D-04
 ENERGY  =  1.00D-08  ETEST   =  0.00D+00  EDENS   =  0.00D+00  THRDEDEF=  1.00D-06  GRADIENT=  1.00D-02  STEP    =  1.00D-03
 ORBITAL =  1.00D-08  CIVEC   =  1.00D-05  COEFF   =  1.00D-04  PRINTCI =  5.00D-02  PUNCHCI =  9.90D+01  OPTGRAD =  3.00D-04
 OPTENERG=  1.00D-06  OPTSTEP =  3.00D-04  THRGRAD =  1.00D-10  COMPRESS=  1.00D-11  VARMIN  =  1.00D-07  VARMAX  =  1.00D-03
 THRDOUB =  0.00D+00  THRDIV  =  1.00D-05  THRRED  =  1.00D-07  THRPSP  =  1.00D+00  THRDC   =  1.00D-10  THRCS   =  1.00D-10
 THRNRM  =  1.00D-08  THREQ   =  0.00D+00  THRDE   =  1.00D+00  THRREF  =  1.00D-05  SPARFAC =  1.00D+00  THRDLP  =  1.00D-07
 THRDIA  =  1.00D-10  THRDLS  =  1.00D-07  THRGPS  =  0.00D+00  THRKEX  =  0.00D+00  THRDIS  =  2.00D-01  THRVAR  =  1.00D-10
 THRLOC  =  1.00D-06  THRGAP  =  1.00D-06  THRLOCT = -1.00D+00  THRGAPT = -1.00D+00  THRORB  =  1.00D-06  THRMLTP =  0.00D+00
 THRCPQCI=  1.00D-10  KEXTA   =  0.00D+00  THRCOARS=  0.00D+00  SYMTOL  =  1.00D-06  GRADTOL =  1.00D-06  THROVL  =  1.00D-08
 THRORTH =  1.00D-08  GRID    =  1.00D-08  GRIDMAX =  1.00D-03  DTMAX   =  0.00D+00  THROCCDE=  1.00D-01  THROCCDE=  1.00D-01
 THRPRINT=  2.50D-01


 Variable memory set to 1000000000 words,  buffer space 

 SETTING GEOMTYP        =    XYZ
 ZSYMEL=NOSYM

 SETTING BASIS          =    AV5Z


 Recomputing integrals since basis changed


 Using spherical harmonics

 Library entry H      S aug-cc-pV5Z          selected for orbital group  1
 Library entry H      P aug-cc-pV5Z          selected for orbital group  1
 Library entry H      D aug-cc-pV5Z          selected for orbital group  1
 Library entry H      F aug-cc-pV5Z          selected for orbital group  1
 Library entry H      G aug-cc-pV5Z          selected for orbital group  1
 Library entry C      S aug-cc-pV5Z          selected for orbital group  2
 Library entry C      P aug-cc-pV5Z          selected for orbital group  2
 Library entry C      D aug-cc-pV5Z          selected for orbital group  2
 Library entry C      F aug-cc-pV5Z          selected for orbital group  2
 Library entry C      G aug-cc-pV5Z          selected for orbital group  2
 Library entry C      H aug-cc-pV5Z          selected for orbital group  2
 Library entry O      S aug-cc-pV5Z          selected for orbital group  3
 Library entry O      P aug-cc-pV5Z          selected for orbital group  3
 Library entry O      D aug-cc-pV5Z          selected for orbital group  3
 Library entry O      F aug-cc-pV5Z          selected for orbital group  3
 Library entry O      G aug-cc-pV5Z          selected for orbital group  3
 Library entry O      H aug-cc-pV5Z          selected for orbital group  3


 PROGRAM * SEWARD (Integral evaluation for generally contracted gaussian basis sets)     Author: Roland Lindh, 1990

 Geometry written to block  1 of record 700


 Point group  C1  



 ATOMIC COORDINATES

 NR  ATOM    CHARGE       X              Y              Z

   1  H1      1.00    0.056132179    8.846521285   -1.483457817
   2  H2      1.00    0.025798106    8.982385148    1.378445264
   3  C1      6.00    0.000000000    0.166779669    0.000000000
   4  O1      8.00    0.000000000    2.319083238    0.000000000
   5  O2      8.00    0.000000000    7.799289000    0.000000000

 Bond lengths in Bohr (Angstrom)

 1-5  1.816726004  2-5  1.816726007  3-4  2.152303570
     ( 0.961370000)     ( 0.961370001)     ( 1.138950000)

 Bond angles

  1-5-2  104.10700007

 NUCLEAR CHARGE:                   24
 NUMBER OF PRIMITIVE AOS:         813
 NUMBER OF SYMMETRY AOS:          598
 NUMBER OF CONTRACTIONS:          541   (  541A   )
 NUMBER OF CORE ORBITALS:           3   (    3A   )
 NUMBER OF VALENCE ORBITALS:       14   (   14A   )


 NUCLEAR REPULSION ENERGY   53.14961623


 Eigenvalues of metric

         1 0.716E-05 0.876E-05 0.114E-04 0.364E-04 0.402E-04 0.565E-04 0.673E-04 0.713E-04


 OPERATOR DM      FOR CENTER  0  COORDINATES:    0.000000    0.000000    0.000000


 **********************************************************************************************************************************
 DATASETS  * FILE   NREC   LENGTH (MB)   RECORD NAMES
              1      18       40.76       500      610      700      900      950      970     1000      129      960     1100   
                                          VAR    BASINP    GEOM    SYMINP    ZMAT    AOBASIS   BASIS     P2S    ABASIS      S 
                                         1400     1410     1200     1210     1080     1600     1650     1700   
                                           T        V       H0       H01     AOSYM     SMH    MOLCAS    OPER   

 PROGRAMS   *        TOTAL       INT
 CPU TIMES  *         0.81      0.65
 REAL TIME  *         2.94 SEC
 DISK USED  *        41.29 MB (local),      165.18 MB (total)
 GA USED    *         0.00 MB       (max)       0.00 MB       (current)
 **********************************************************************************************************************************

 Density functional group PBE=PBEX+PBEC
 Functional: PBEX(Automatically generated (new) PBEX)                          Gradient terms: 1
 Functional: PBEC(Automatically generated (new) PBEC)                          Gradient terms: 1
 Use libxcgrid:  F
 Use grid at  1800.2

 Functional: PBEX                      Factor:  1.0000
 Functional: PBEC                      Factor:  1.0000

 Generated new metagrid on record  1800.2 with target accuracy 1.0D-08 and 55400 points in CPU time    0.2
 Computed new grid on record 1800.1 in CPU time    0.2
  439228 words reserved for DFT integration

 PROGRAM * RKS-SCF (Restricted closed shell Kohn-Sham)     Authors: W. Meyer, H.-J. Werner, P.J. Knowles, 1993

 NUMBER OF ELECTRONS:      12+   12-    SPACE SYMMETRY=1    SPIN SYMMETRY: Singlet 
 CONVERGENCE THRESHOLDS:    1.00E-04 (Density)    1.00E-08 (Energy)
 INTEGRAL THRESHOLDS:       1.00E-11 (Initial)    1.00E-11 (Final)
 MAX. NUMBER OF ITERATIONS:       60
 INTERPOLATION TYPE:            DIIS
 INTERPOLATION STEPS:              2 (START)      1 (STEP)
 LEVEL SHIFTS:                  0.00 (CLOSED)  0.00 (OPEN) 



 Use fine grid record 1800.2 for energy threshold  1.0D-08
 Orbital guess generated from atomic densities. Full valence occupancy:   17

 Molecular orbital dump at record        2101.2

 Initial occupancy:  12

 Direct Fock-matrix evaluation.        Authors: Roland Lindh & Martin Schuetz (1993/96)

 Integral Threshold:                  0.1D-10
 Threshold for writing integrals:     0.1D-06
 Prescreening on density matrix:        ON 
 Calculation will be performed fully direct        

 ITERATION   DDIFF            GRAD            ENERGY        2-EL.EN.            DIPOLE MOMENTS         DIIS   CPU(IT)  CPU(TOT)
    1      0.000D+00      0.000D+00      -189.51957673    297.414833    0.04037    1.02034   -0.05170    0    229.5    241.4     start
    2      0.000D+00      0.493D-02      -188.97666868    271.799309   -0.01778    0.70799    0.02770    1    219.6    461.0     diag
    3      0.619D-02      0.116D-01      -189.61302285    290.110776    0.02627    0.47860   -0.03185    2    216.8    677.8     diag
    4      0.471D-02      0.172D-02      -189.62212400    289.264315    0.02757    1.08686   -0.03409    3    197.9    875.7     diag
    5      0.111D-02      0.123D-02      -189.62867318    289.501726    0.02554    0.85746   -0.03162    4    191.0   1066.7     diag
    6      0.450D-03      0.176D-03      -189.62883917    289.385993    0.02560    0.84129   -0.03150    5    184.2   1250.9     diag
    7      0.101D-03      0.283D-04      -189.62884309    289.428088    0.02566    0.83816   -0.03162    6    163.5   1414.4     diag
    8      0.119D-04      0.275D-05      -189.62884313    289.428471    0.02568    0.83886   -0.03160    7    139.0   1553.3     diag
    9      0.952D-06      0.472D-06      -189.62884312    289.428773    0.02567    0.83854   -0.03162    0    118.9   1672.2     orth

 Final occupancy:  12

 !RKS STATE  1.1 Energy              -189.628843124272
 Nuclear energy                        53.14961623
 One-electron energy                 -364.50139953
 Two-electron energy                  144.71438665
 Density functional                   -22.99144647     PBEX=-22.21851584 PBEC= -0.77293063
 Virial quotient                       -1.00350226
 !RKS STATE  1.1 Dipole moment          0.02567298     0.83854032    -0.03161838
 Dipole moment /Debye                   0.06524994     2.13121732    -0.08036065

 Orbital energies:

         1.1          2.1          3.1          4.1          5.1          6.1          7.1          8.1          9.1         10.1
    -18.841350   -18.753930    -9.987054    -1.055144    -0.930231    -0.500907    -0.482842    -0.416633    -0.416453    -0.342995

        11.1         12.1         13.1         14.1
     -0.318427    -0.265790    -0.063952    -0.063701


 HOMO     12.1    -0.265790 =      -7.2325eV
 LUMO     13.1    -0.063952 =      -1.7402eV
 LUMO-HOMO         0.201838 =       5.4923eV


 **********************************************************************************************************************************
 DATASETS  * FILE   NREC   LENGTH (MB)   RECORD NAMES
              1      19       40.76       500      610      700      900      950      970     1000      129      960     1100   
                                          VAR    BASINP    GEOM    SYMINP    ZMAT    AOBASIS   BASIS     P2S    ABASIS      S 
                                         1400     1410     1200     1210     1080     1600     1650     1700     1800   
                                           T        V       H0       H01     AOSYM     SMH    MOLCAS    OPER     GRID   

              2       5        8.79       700     1000      520     1800     2101   
                                         GEOM     BASIS   MCVARS    GRID      RKS  

 PROGRAMS   *        TOTAL   RKS-SCF       INT
 CPU TIMES  *      1673.60   1672.79      0.65
 REAL TIME  *      1690.60 SEC
 DISK USED  *        68.46 MB (local),      273.83 MB (total)
 SF USED    *         3.52 MB
 GA USED    *         1.84 MB       (max)       1.84 MB       (current)
 **********************************************************************************************************************************
 SETTING EAB_PBE        =      -189.62884312  AU                              

 Dummy atoms: C1  O1


 Recomputing one-electron integrals since nuclear charges changed


 PROGRAM * SEWARD (Integral evaluation for generally contracted gaussian basis sets)     Author: Roland Lindh, 1990

 Geometry written to block  1 of record 700


 Point group  C1  



 ATOMIC COORDINATES

 NR  ATOM    CHARGE       X              Y              Z

   1  H1      1.00    0.056132179    8.846521285   -1.483457817
   2  H2      1.00    0.025798106    8.982385148    1.378445264
   3  C1      0.00    0.000000000    0.166779669    0.000000000
   4  O1      0.00    0.000000000    2.319083238    0.000000000
   5  O2      8.00    0.000000000    7.799289000    0.000000000

 Bond lengths in Bohr (Angstrom)

 1-5  1.816726004  2-5  1.816726007  3-4  2.152303570
     ( 0.961370000)     ( 0.961370001)     ( 1.138950000)

 Bond angles

  1-5-2  104.10700007

 NUCLEAR CHARGE:                   10
 NUMBER OF PRIMITIVE AOS:         813
 NUMBER OF SYMMETRY AOS:          598
 NUMBER OF CONTRACTIONS:          541   (  541A   )
 NUMBER OF CORE ORBITALS:           1   (    1A   )
 NUMBER OF VALENCE ORBITALS:        6   (    6A   )

 MOLECULE CHANGED: INITIALIZING OCCUPATION AND DUMP RECORDS


 NUCLEAR REPULSION ENERGY    9.15605698


 Eigenvalues of metric

         1 0.716E-05 0.876E-05 0.114E-04 0.364E-04 0.402E-04 0.565E-04 0.673E-04 0.713E-04


 OPERATOR DM      FOR CENTER  0  COORDINATES:    0.000000    0.000000    0.000000


 **********************************************************************************************************************************
 DATASETS  * FILE   NREC   LENGTH (MB)   RECORD NAMES
              1      19       40.76       500      610      700      900      950      970     1000      129      960     1100   
                                          VAR    BASINP    GEOM    SYMINP    ZMAT    AOBASIS   BASIS     P2S    ABASIS      S 
                                         1400     1410     1200     1210     1080     1600     1650     1700     1800   
                                           T        V       H0       H01     AOSYM     SMH    MOLCAS    OPER     GRID   

              2       5        8.79       700     1000      520     1800     2101   
                                         GEOM     BASIS   MCVARS    GRID      RKS  

 PROGRAMS   *        TOTAL       INT   RKS-SCF       INT
 CPU TIMES  *      1673.96      0.35   1672.79      0.65
 REAL TIME  *      1691.01 SEC
 DISK USED  *        68.46 MB (local),      273.83 MB (total)
 SF USED    *         3.52 MB
 GA USED    *         1.84 MB       (max)       1.84 MB       (current)
 **********************************************************************************************************************************

 Density functional group PBE=PBEX+PBEC
 Functional: PBEX(Automatically generated (new) PBEX)                          Gradient terms: 1
 Functional: PBEC(Automatically generated (new) PBEC)                          Gradient terms: 1
 Use libxcgrid:  F
 Use grid at  1800.2

 Functional: PBEX                      Factor:  1.0000
 Functional: PBEC                      Factor:  1.0000

 Generated new metagrid on record  1800.2 with target accuracy 1.0D-08 and 55400 points in CPU time    0.2
 Computed new grid on record 1800.1 in CPU time    0.2
  439228 words reserved for DFT integration

 PROGRAM * RKS-SCF (Restricted closed shell Kohn-Sham)     Authors: W. Meyer, H.-J. Werner, P.J. Knowles, 1993

 NUMBER OF ELECTRONS:       5+    5-    SPACE SYMMETRY=1    SPIN SYMMETRY: Singlet 
 CONVERGENCE THRESHOLDS:    1.00E-04 (Density)    1.00E-08 (Energy)
 INTEGRAL THRESHOLDS:       1.00E-11 (Initial)    1.00E-11 (Final)
 MAX. NUMBER OF ITERATIONS:       60
 INTERPOLATION TYPE:            DIIS
 INTERPOLATION STEPS:              2 (START)      1 (STEP)
 LEVEL SHIFTS:                  0.00 (CLOSED)  0.00 (OPEN) 



 Use fine grid record 1800.2 for energy threshold  1.0D-08
 Orbital guess generated from atomic densities. Full valence occupancy:    7

 Molecular orbital dump at record        2201.2

 Initial occupancy:   5

 Direct Fock-matrix evaluation.        Authors: Roland Lindh & Martin Schuetz (1993/96)

 Integral Threshold:                  0.1D-10
 Threshold for writing integrals:     0.1D-06
 Prescreening on density matrix:        ON 
 Calculation will be performed fully direct        

 ITERATION   DDIFF            GRAD            ENERGY        2-EL.EN.            DIPOLE MOMENTS         DIIS   CPU(IT)  CPU(TOT)
    1      0.000D+00      0.000D+00       -76.30160017     98.228131    0.04036    1.09886   -0.05174    0    205.8    215.2     start
    2      0.000D+00      0.671D-02       -75.90989375     81.736797   -0.01692   -0.45708    0.02142    1    211.7    426.9     diag
    3      0.545D-02      0.152D-01       -76.38773158     93.606290    0.02708    0.73709   -0.03470    2    210.6    637.5     diag
    4      0.391D-02      0.402D-03       -76.38815742     93.200275    0.02597    0.70696   -0.03329    3    180.0    817.5     diag
    5      0.187D-03      0.883D-04       -76.38817106     93.251429    0.02592    0.70547   -0.03322    4    155.6    973.1     diag
    6      0.267D-04      0.198D-04       -76.38817184     93.261970    0.02600    0.70782   -0.03333    5    139.8   1112.9     diag
    7      0.522D-05      0.922D-06       -76.38817184     93.261729    0.02600    0.70768   -0.03332    6    107.2   1220.1     diag
    8      0.268D-06      0.613D-07       -76.38817184     93.261817    0.02600    0.70770   -0.03332    0     57.8   1277.9     orth

 Final occupancy:   5

 !RKS STATE  1.1 Energy               -76.388171844283
 Nuclear energy                         9.15605698
 One-electron energy                 -122.93680738
 Two-electron energy                   46.63090844
 Density functional                    -9.23832989     PBEX=-8.91399799 PBEC=-0.32433191
 Virial quotient                       -1.00337990
 !RKS STATE  1.1 Dipole moment          0.02599846     0.70770005    -0.03332316
 Dipole moment /Debye                   0.06607717     1.79867629    -0.08469347

 Orbital energies:

         1.1          2.1          3.1          4.1          5.1          6.1          7.1
    -18.755010    -0.930819    -0.483377    -0.343717    -0.266301    -0.034731     0.014452


 HOMO      5.1    -0.266301 =      -7.2464eV
 LUMO      6.1    -0.034731 =      -0.9451eV
 LUMO-HOMO         0.231570 =       6.3013eV


 **********************************************************************************************************************************
 DATASETS  * FILE   NREC   LENGTH (MB)   RECORD NAMES
              1      19       40.76       500      610      700      900      950      970     1000      129      960     1100   
                                          VAR    BASINP    GEOM    SYMINP    ZMAT    AOBASIS   BASIS     P2S    ABASIS      S 
                                         1400     1410     1200     1210     1080     1600     1650     1700     1800   
                                           T        V       H0       H01     AOSYM     SMH    MOLCAS    OPER     GRID   

              2       6       23.02       700     1000      520     1800     2101     2201   
                                         GEOM     BASIS   MCVARS    GRID      RKS      RKS  

 PROGRAMS   *        TOTAL   RKS-SCF       INT   RKS-SCF       INT
 CPU TIMES  *      2952.48   1278.52      0.35   1672.79      0.65
 REAL TIME  *      2979.08 SEC
 DISK USED  *        81.51 MB (local),      326.05 MB (total)
 SF USED    *         3.52 MB
 GA USED    *         1.84 MB       (max)       1.84 MB       (current)
 **********************************************************************************************************************************
 SETTING EA_PBE         =       -76.38817184  AU                              

 Dummy atoms: H1  H2  O2


 Recomputing one-electron integrals since nuclear charges changed


 PROGRAM * SEWARD (Integral evaluation for generally contracted gaussian basis sets)     Author: Roland Lindh, 1990

 Geometry written to block  1 of record 700


 Point group  C1  



 ATOMIC COORDINATES

 NR  ATOM    CHARGE       X              Y              Z

   1  H1      0.00    0.056132179    8.846521285   -1.483457817
   2  H2      0.00    0.025798106    8.982385148    1.378445264
   3  C1      6.00    0.000000000    0.166779669    0.000000000
   4  O1      8.00    0.000000000    2.319083238    0.000000000
   5  O2      0.00    0.000000000    7.799289000    0.000000000

 Bond lengths in Bohr (Angstrom)

 1-5  1.816726004  2-5  1.816726007  3-4  2.152303570
     ( 0.961370000)     ( 0.961370001)     ( 1.138950000)

 Bond angles

  1-5-2  104.10700007

 NUCLEAR CHARGE:                   14
 NUMBER OF PRIMITIVE AOS:         813
 NUMBER OF SYMMETRY AOS:          598
 NUMBER OF CONTRACTIONS:          541   (  541A   )
 NUMBER OF CORE ORBITALS:           2   (    2A   )
 NUMBER OF VALENCE ORBITALS:        8   (    8A   )

 MOLECULE CHANGED: INITIALIZING OCCUPATION AND DUMP RECORDS


 NUCLEAR REPULSION ENERGY   22.30168675


 Eigenvalues of metric

         1 0.716E-05 0.876E-05 0.114E-04 0.364E-04 0.402E-04 0.565E-04 0.673E-04 0.713E-04


 OPERATOR DM      FOR CENTER  0  COORDINATES:    0.000000    0.000000    0.000000


 **********************************************************************************************************************************
 DATASETS  * FILE   NREC   LENGTH (MB)   RECORD NAMES
              1      19       40.76       500      610      700      900      950      970     1000      129      960     1100   
                                          VAR    BASINP    GEOM    SYMINP    ZMAT    AOBASIS   BASIS     P2S    ABASIS      S 
                                         1400     1410     1200     1210     1080     1600     1650     1700     1800   
                                           T        V       H0       H01     AOSYM     SMH    MOLCAS    OPER     GRID   

              2       6       23.02       700     1000      520     1800     2101     2201   
                                         GEOM     BASIS   MCVARS    GRID      RKS      RKS  

 PROGRAMS   *        TOTAL       INT   RKS-SCF       INT   RKS-SCF       INT
 CPU TIMES  *      2952.85      0.36   1278.52      0.35   1672.79      0.65
 REAL TIME  *      2979.51 SEC
 DISK USED  *        81.51 MB (local),      326.05 MB (total)
 SF USED    *         3.52 MB
 GA USED    *         1.84 MB       (max)       1.84 MB       (current)
 **********************************************************************************************************************************

 Density functional group PBE=PBEX+PBEC
 Functional: PBEX(Automatically generated (new) PBEX)                          Gradient terms: 1
 Functional: PBEC(Automatically generated (new) PBEC)                          Gradient terms: 1
 Use libxcgrid:  F
 Use grid at  1800.2

 Functional: PBEX                      Factor:  1.0000
 Functional: PBEC                      Factor:  1.0000

 Generated new metagrid on record  1800.2 with target accuracy 1.0D-08 and 55400 points in CPU time    0.2
 Computed new grid on record 1800.1 in CPU time    0.2
  439228 words reserved for DFT integration

 PROGRAM * RKS-SCF (Restricted closed shell Kohn-Sham)     Authors: W. Meyer, H.-J. Werner, P.J. Knowles, 1993

 NUMBER OF ELECTRONS:       7+    7-    SPACE SYMMETRY=1    SPIN SYMMETRY: Singlet 
 CONVERGENCE THRESHOLDS:    1.00E-04 (Density)    1.00E-08 (Energy)
 INTEGRAL THRESHOLDS:       1.00E-11 (Initial)    1.00E-11 (Final)
 MAX. NUMBER OF ITERATIONS:       60
 INTERPOLATION TYPE:            DIIS
 INTERPOLATION STEPS:              2 (START)      1 (STEP)
 LEVEL SHIFTS:                  0.00 (CLOSED)  0.00 (OPEN) 



 Use fine grid record 1800.2 for energy threshold  1.0D-08
 Orbital guess generated from atomic densities. Full valence occupancy:   10

 Molecular orbital dump at record        2301.2

 Initial occupancy:   7

 Direct Fock-matrix evaluation.        Authors: Roland Lindh & Martin Schuetz (1993/96)

 Integral Threshold:                  0.1D-10
 Threshold for writing integrals:     0.1D-06
 Prescreening on density matrix:        ON 
 Calculation will be performed fully direct        

 ITERATION   DDIFF            GRAD            ENERGY        2-EL.EN.            DIPOLE MOMENTS         DIIS   CPU(IT)  CPU(TOT)
    1      0.000D+00      0.000D+00      -113.22138418    154.899857   -0.00000   -0.07795    0.00000    0    215.9    226.1     start
    2      0.000D+00      0.288D-02      -113.12803454    148.013489   -0.00000    0.96769    0.00000    1    201.3    427.4     diag
    3      0.247D-02      0.660D-02      -113.23298200    152.413198   -0.00000   -0.21400   -0.00000    2    192.4    619.8     diag
    4      0.212D-02      0.165D-02      -113.24185047    152.381389   -0.00000    0.08480    0.00000    3    184.4    804.2     diag
    5      0.609D-03      0.110D-03      -113.24188823    152.306845   -0.00000    0.07922    0.00000    4    163.4    967.5     diag
    6      0.436D-04      0.274D-04      -113.24189055    152.316180   -0.00000    0.07474    0.00000    5    139.8   1107.4     diag
    7      0.754D-05      0.284D-05      -113.24189057    152.317877   -0.00000    0.07441    0.00000    6     99.5   1206.9     diag
    8      0.744D-06      0.203D-06      -113.24189057    152.318035   -0.00000    0.07430    0.00000    0     65.2   1272.1     orth

 Final occupancy:   7

 !RKS STATE  1.1 Energy              -113.241890569201
 Nuclear energy                        22.30168675
 One-electron energy                 -197.95141355
 Two-electron energy                   76.15901735
 Density functional                   -13.75118112     PBEX=-13.30338898 PBEC= -0.44779215
 Virial quotient                       -1.00368531
 !RKS STATE  1.1 Dipole moment         -0.00000030     0.07430213     0.00000004
 Dipole moment /Debye                  -0.00000075     0.18884480     0.00000009

 Orbital energies:

         1.1          2.1          3.1          4.1          5.1          6.1          7.1          8.1          9.1
    -18.857461   -10.002953    -1.071255    -0.519403    -0.432473    -0.432473    -0.333165    -0.077686    -0.077685


 HOMO      7.1    -0.333165 =      -9.0659eV
 LUMO      8.1    -0.077686 =      -2.1139eV
 LUMO-HOMO         0.255478 =       6.9519eV


 **********************************************************************************************************************************
 DATASETS  * FILE   NREC   LENGTH (MB)   RECORD NAMES
              1      19       40.76       500      610      700      900      950      970     1000      129      960     1100   
                                          VAR    BASINP    GEOM    SYMINP    ZMAT    AOBASIS   BASIS     P2S    ABASIS      S 
                                         1400     1410     1200     1210     1080     1600     1650     1700     1800   
                                           T        V       H0       H01     AOSYM     SMH    MOLCAS    OPER     GRID   

              2       7       37.25       700     1000      520     1800     2101     2201     2301   
                                         GEOM     BASIS   MCVARS    GRID      RKS      RKS      RKS  

 PROGRAMS   *        TOTAL   RKS-SCF       INT   RKS-SCF       INT   RKS-SCF       INT
 CPU TIMES  *      4225.56   1272.71      0.36   1278.52      0.35   1672.79      0.65
 REAL TIME  *      4261.01 SEC
 DISK USED  *        95.74 MB (local),      382.97 MB (total)
 SF USED    *         3.52 MB
 GA USED    *         1.84 MB       (max)       1.84 MB       (current)
 **********************************************************************************************************************************
 SETTING EB_PBE         =      -113.24189057  AU                              
 SETTING E_AB_INT       =         0.00121929  AU                              

 *** results in hartree
 E_AB_INT         =         0.00121929 AU
 Molecular orbitals read from record     2301.2  Type=RKS/CANONICAL (state 1.1)
 Occupation numbers read from record     2301.2  Type=RKS/RHF (state 1.1)
 Orbital energies read from record       2301.2  Type=RKS/CANONICAL (state 1.1)
 Redundancy group numbers read from rec  2301.2  Type=RKS/RHF (state 1.1)

 RPBE/aug-cc-pV5Z energy=   -113.241890569201

         RKS-SCF         RKS-SCF         RKS-SCF
   -113.24189057    -76.38817184   -189.62884312
 **********************************************************************************************************************************
 Molpro calculation terminated
