
 Primary working directories    : /scratch/sirous/753751/molpro.8uto0JvKa7
 Secondary working directories  : /scratch/sirous/753751/molpro.8uto0JvKa7
 Wavefunction directory         : /scratch/sirous/753751/
 Main file repository           : /scratch/sirous/753751/molpro.8uto0JvKa7/

 id        : karlovklimes

 Nodes                      nprocs
 nc-08.cc.karlov.mff.cuni.cz    4

 Using customized tuning parameters: mindgm=1; mindgv=20; mindgc=4; mindgr=1; noblas=0; minvec=7
 default implementation of scratch files=sf  


 Variables initialized (934), CPU time= 0.00 sec
 ***,CH3C6H4CN+CF3CN+BF3
 memory,1000,m
 gdirect
 gthresh,energy=1.d-8,twoint=1.d-19,oneint=1.d-19,zero=1.d-15,orbital=1.d-8,grid=1.d-8,THROVL=1.d-8
 symmetry,nosym
 geomtyp=xyz
                                                                                 ! Geometry
 geometry={
 H1        0.02970387    5.28137746     -0.78501207
 H2        0.01365177    5.35327352     0.72944182
 C1        0.00000000    0.08825600     0.00000000
 O1        0.00000000    1.22720600     0.00000000
 O2        0.00000000    4.72720600     0.00000000
 }
 
 
 
 basis=av5z
 
 
 
                                                                                 ! Dimer Calculation
 {rks,pbe,accu=1.d-8;orbital,2101.2}
 eab_PBE=energy
 
 
                                                                                 !monomer A
 dummy,3,4;                                                                      ! NOW MONOMER B IS DUMMY
 {rks,pbe,accu=1.d-8;orbital,2201.2}
 ea_PBE=energy
                                                                                 !monomer B
 dummy,1,2,5;                                                                    !NOW MONOMER A IS DUMMY
 {rks,pbe,accu=1.d-8;orbital,2301.2}
 eb_PBE=energy
 
 E_AB_int=eab_PBE-ea_PBE-eb_PBE
 
 
 text,results in hartree
 show,E_AB_int
 
 Commands  initialized (763), CPU time= 0.02 sec, 617 directives.
 Default parameters read. Elapsed time= 0.31 sec

 Checking input...
 Passed
1


                                         ***  PROGRAM SYSTEM MOLPRO  ***
                                       Copyright, TTI GmbH Stuttgart, 2015
                                    Version 2019.2 linked Jun  8 2019 11:26:33


 **********************************************************************************************************************************
 LABEL *   CH3C6H4CN+CF3CN+BF3                                                           
  64 bit mpp version                                                                     DATE: 23-Jul-20          TIME: 10:06:07  
 **********************************************************************************************************************************

 SHA1:             8135a10abc80eafa5b3ae28ffc55be4890dc4c84
 **********************************************************************************************************************************

 THRESHOLDS:

 ZERO    =  1.00D-15  ONEINT  =  1.00D-19  TWOINT  =  1.00D-19  PREFAC  =  1.00D-14  XXXXXX  =  1.00D-09  EORDER  =  1.00D-04
 ENERGY  =  1.00D-08  ETEST   =  0.00D+00  EDENS   =  0.00D+00  THRDEDEF=  1.00D-06  GRADIENT=  1.00D-02  STEP    =  1.00D-03
 ORBITAL =  1.00D-08  CIVEC   =  1.00D-05  COEFF   =  1.00D-04  PRINTCI =  5.00D-02  PUNCHCI =  9.90D+01  OPTGRAD =  3.00D-04
 OPTENERG=  1.00D-06  OPTSTEP =  3.00D-04  THRGRAD =  1.00D-10  COMPRESS=  1.00D-11  VARMIN  =  1.00D-07  VARMAX  =  1.00D-03
 THRDOUB =  0.00D+00  THRDIV  =  1.00D-05  THRRED  =  1.00D-07  THRPSP  =  1.00D+00  THRDC   =  1.00D-10  THRCS   =  1.00D-10
 THRNRM  =  1.00D-08  THREQ   =  0.00D+00  THRDE   =  1.00D+00  THRREF  =  1.00D-05  SPARFAC =  1.00D+00  THRDLP  =  1.00D-07
 THRDIA  =  1.00D-10  THRDLS  =  1.00D-07  THRGPS  =  0.00D+00  THRKEX  =  0.00D+00  THRDIS  =  2.00D-01  THRVAR  =  1.00D-10
 THRLOC  =  1.00D-06  THRGAP  =  1.00D-06  THRLOCT = -1.00D+00  THRGAPT = -1.00D+00  THRORB  =  1.00D-06  THRMLTP =  0.00D+00
 THRCPQCI=  1.00D-10  KEXTA   =  0.00D+00  THRCOARS=  0.00D+00  SYMTOL  =  1.00D-06  GRADTOL =  1.00D-06  THROVL  =  1.00D-08
 THRORTH =  1.00D-08  GRID    =  1.00D-08  GRIDMAX =  1.00D-03  DTMAX   =  0.00D+00  THROCCDE=  1.00D-01  THROCCDE=  1.00D-01
 THRPRINT=  2.50D-01


 Variable memory set to 1000000000 words,  buffer space 

 SETTING GEOMTYP        =    XYZ
 ZSYMEL=NOSYM

 SETTING BASIS          =    AV5Z


 Recomputing integrals since basis changed


 Using spherical harmonics

 Library entry H      S aug-cc-pV5Z          selected for orbital group  1
 Library entry H      P aug-cc-pV5Z          selected for orbital group  1
 Library entry H      D aug-cc-pV5Z          selected for orbital group  1
 Library entry H      F aug-cc-pV5Z          selected for orbital group  1
 Library entry H      G aug-cc-pV5Z          selected for orbital group  1
 Library entry C      S aug-cc-pV5Z          selected for orbital group  2
 Library entry C      P aug-cc-pV5Z          selected for orbital group  2
 Library entry C      D aug-cc-pV5Z          selected for orbital group  2
 Library entry C      F aug-cc-pV5Z          selected for orbital group  2
 Library entry C      G aug-cc-pV5Z          selected for orbital group  2
 Library entry C      H aug-cc-pV5Z          selected for orbital group  2
 Library entry O      S aug-cc-pV5Z          selected for orbital group  3
 Library entry O      P aug-cc-pV5Z          selected for orbital group  3
 Library entry O      D aug-cc-pV5Z          selected for orbital group  3
 Library entry O      F aug-cc-pV5Z          selected for orbital group  3
 Library entry O      G aug-cc-pV5Z          selected for orbital group  3
 Library entry O      H aug-cc-pV5Z          selected for orbital group  3


 PROGRAM * SEWARD (Integral evaluation for generally contracted gaussian basis sets)     Author: Roland Lindh, 1990

 Geometry written to block  1 of record 700


 Point group  C1  



 ATOMIC COORDINATES

 NR  ATOM    CHARGE       X              Y              Z

   1  H1      1.00    0.056132179    9.980356960   -1.483457817
   2  H2      1.00    0.025798106   10.116220823    1.378445264
   3  C1      6.00    0.000000000    0.166779669    0.000000000
   4  O1      8.00    0.000000000    2.319083238    0.000000000
   5  O2      8.00    0.000000000    8.933124674    0.000000000

 Bond lengths in Bohr (Angstrom)

 1-5  1.816726004  2-5  1.816726007  3-4  2.152303570
     ( 0.961370000)     ( 0.961370001)     ( 1.138950000)

 Bond angles

  1-5-2  104.10700007

 NUCLEAR CHARGE:                   24
 NUMBER OF PRIMITIVE AOS:         813
 NUMBER OF SYMMETRY AOS:          598
 NUMBER OF CONTRACTIONS:          541   (  541A   )
 NUMBER OF CORE ORBITALS:           3   (    3A   )
 NUMBER OF VALENCE ORBITALS:       14   (   14A   )


 NUCLEAR REPULSION ENERGY   49.84696430


 Eigenvalues of metric

         1 0.859E-05 0.103E-04 0.120E-04 0.461E-04 0.522E-04 0.695E-04 0.737E-04 0.760E-04


 OPERATOR DM      FOR CENTER  0  COORDINATES:    0.000000    0.000000    0.000000


 **********************************************************************************************************************************
 DATASETS  * FILE   NREC   LENGTH (MB)   RECORD NAMES
              1      18       40.76       500      610      700      900      950      970     1000      129      960     1100   
                                          VAR    BASINP    GEOM    SYMINP    ZMAT    AOBASIS   BASIS     P2S    ABASIS      S 
                                         1400     1410     1200     1210     1080     1600     1650     1700   
                                           T        V       H0       H01     AOSYM     SMH    MOLCAS    OPER   

 PROGRAMS   *        TOTAL       INT
 CPU TIMES  *         0.87      0.68
 REAL TIME  *         2.29 SEC
 DISK USED  *        41.29 MB (local),      165.18 MB (total)
 GA USED    *         0.00 MB       (max)       0.00 MB       (current)
 **********************************************************************************************************************************

 Density functional group PBE=PBEX+PBEC
 Functional: PBEX(Automatically generated (new) PBEX)                          Gradient terms: 1
 Functional: PBEC(Automatically generated (new) PBEC)                          Gradient terms: 1
 Use libxcgrid:  F
 Use grid at  1800.2

 Functional: PBEX                      Factor:  1.0000
 Functional: PBEC                      Factor:  1.0000

 Generated new metagrid on record  1800.2 with target accuracy 1.0D-08 and 55400 points in CPU time    0.2
 Computed new grid on record 1800.1 in CPU time    0.2
  439228 words reserved for DFT integration

 PROGRAM * RKS-SCF (Restricted closed shell Kohn-Sham)     Authors: W. Meyer, H.-J. Werner, P.J. Knowles, 1993

 NUMBER OF ELECTRONS:      12+   12-    SPACE SYMMETRY=1    SPIN SYMMETRY: Singlet 
 CONVERGENCE THRESHOLDS:    1.00E-04 (Density)    1.00E-08 (Energy)
 INTEGRAL THRESHOLDS:       1.00E-11 (Initial)    1.00E-11 (Final)
 MAX. NUMBER OF ITERATIONS:       60
 INTERPOLATION TYPE:            DIIS
 INTERPOLATION STEPS:              2 (START)      1 (STEP)
 LEVEL SHIFTS:                  0.00 (CLOSED)  0.00 (OPEN) 



 Use fine grid record 1800.2 for energy threshold  1.0D-08
 Orbital guess generated from atomic densities. Full valence occupancy:   17

 Molecular orbital dump at record        2101.2

 Initial occupancy:  12

 Direct Fock-matrix evaluation.        Authors: Roland Lindh & Martin Schuetz (1993/96)

 Integral Threshold:                  0.1D-10
 Threshold for writing integrals:     0.1D-06
 Prescreening on density matrix:        ON 
 Calculation will be performed fully direct        

 ITERATION   DDIFF            GRAD            ENERGY        2-EL.EN.            DIPOLE MOMENTS         DIIS   CPU(IT)  CPU(TOT)
    1      0.000D+00      0.000D+00      -189.52182458    290.525759    0.04036    1.02119   -0.05173    0    202.2    214.9     start
    2      0.000D+00      0.491D-02      -189.00518688    265.694118   -0.01805    0.65245    0.02459    1    193.0    407.9     diag
    3      0.597D-02      0.114D-01      -189.61597468    283.318927    0.02644    0.48654   -0.03288    2    189.9    597.8     diag
    4      0.447D-02      0.161D-02      -189.62328604    282.536219    0.02755    1.07275   -0.03466    3    176.1    773.9     diag
    5      0.107D-02      0.121D-02      -189.62976497    282.772268    0.02561    0.83939   -0.03226    4    170.9    944.7     diag
    6      0.446D-03      0.168D-03      -189.62991573    282.652747    0.02566    0.82441   -0.03221    5    165.5   1110.2     diag
    7      0.970D-04      0.259D-04      -189.62991897    282.690687    0.02571    0.82180   -0.03230    6    150.3   1260.6     diag
    8      0.109D-04      0.261D-05      -189.62991900    282.691156    0.02573    0.82246   -0.03230    7    132.7   1393.2     diag
    9      0.889D-06      0.462D-06      -189.62991900    282.691515    0.02572    0.82213   -0.03231    0    114.3   1507.5     orth

 Final occupancy:  12

 !RKS STATE  1.1 Energy              -189.629918999446
 Nuclear energy                        49.84696430
 One-electron energy                 -357.83379333
 Two-electron energy                  141.34575760
 Density functional                   -22.98884757     PBEX=-22.21660814 PBEC= -0.77223943
 Virial quotient                       -1.00356948
 !RKS STATE  1.1 Dipole moment          0.02572301     0.82213417    -0.03230919
 Dipole moment /Debye                   0.06537709     2.08951976    -0.08211640

 Orbital energies:

         1.1          2.1          3.1          4.1          5.1          6.1          7.1          8.1          9.1         10.1
    -18.845952   -18.754711    -9.991433    -1.059482    -0.930528    -0.505778    -0.483104    -0.420806    -0.420712    -0.343323

        11.1         12.1         13.1         14.1
     -0.323034    -0.266014    -0.067420    -0.067317


 HOMO     12.1    -0.266014 =      -7.2386eV
 LUMO     13.1    -0.067420 =      -1.8346eV
 LUMO-HOMO         0.198594 =       5.4040eV


 **********************************************************************************************************************************
 DATASETS  * FILE   NREC   LENGTH (MB)   RECORD NAMES
              1      19       40.76       500      610      700      900      950      970     1000      129      960     1100   
                                          VAR    BASINP    GEOM    SYMINP    ZMAT    AOBASIS   BASIS     P2S    ABASIS      S 
                                         1400     1410     1200     1210     1080     1600     1650     1700     1800   
                                           T        V       H0       H01     AOSYM     SMH    MOLCAS    OPER     GRID   

              2       5        8.79       700     1000      520     1800     2101   
                                         GEOM     BASIS   MCVARS    GRID      RKS  

 PROGRAMS   *        TOTAL   RKS-SCF       INT
 CPU TIMES  *      1508.97   1508.10      0.68
 REAL TIME  *      1528.10 SEC
 DISK USED  *        68.46 MB (local),      273.83 MB (total)
 SF USED    *         3.52 MB
 GA USED    *         1.84 MB       (max)       1.84 MB       (current)
 **********************************************************************************************************************************
 SETTING EAB_PBE        =      -189.62991900  AU                              

 Dummy atoms: C1  O1


 Recomputing one-electron integrals since nuclear charges changed


 PROGRAM * SEWARD (Integral evaluation for generally contracted gaussian basis sets)     Author: Roland Lindh, 1990

 Geometry written to block  1 of record 700


 Point group  C1  



 ATOMIC COORDINATES

 NR  ATOM    CHARGE       X              Y              Z

   1  H1      1.00    0.056132179    9.980356960   -1.483457817
   2  H2      1.00    0.025798106   10.116220823    1.378445264
   3  C1      0.00    0.000000000    0.166779669    0.000000000
   4  O1      0.00    0.000000000    2.319083238    0.000000000
   5  O2      8.00    0.000000000    8.933124674    0.000000000

 Bond lengths in Bohr (Angstrom)

 1-5  1.816726004  2-5  1.816726007  3-4  2.152303570
     ( 0.961370000)     ( 0.961370001)     ( 1.138950000)

 Bond angles

  1-5-2  104.10700007

 NUCLEAR CHARGE:                   10
 NUMBER OF PRIMITIVE AOS:         813
 NUMBER OF SYMMETRY AOS:          598
 NUMBER OF CONTRACTIONS:          541   (  541A   )
 NUMBER OF CORE ORBITALS:           1   (    1A   )
 NUMBER OF VALENCE ORBITALS:        6   (    6A   )

 MOLECULE CHANGED: INITIALIZING OCCUPATION AND DUMP RECORDS


 NUCLEAR REPULSION ENERGY    9.15605698


 Eigenvalues of metric

         1 0.859E-05 0.103E-04 0.120E-04 0.461E-04 0.522E-04 0.695E-04 0.737E-04 0.760E-04


 OPERATOR DM      FOR CENTER  0  COORDINATES:    0.000000    0.000000    0.000000


 **********************************************************************************************************************************
 DATASETS  * FILE   NREC   LENGTH (MB)   RECORD NAMES
              1      19       40.76       500      610      700      900      950      970     1000      129      960     1100   
                                          VAR    BASINP    GEOM    SYMINP    ZMAT    AOBASIS   BASIS     P2S    ABASIS      S 
                                         1400     1410     1200     1210     1080     1600     1650     1700     1800   
                                           T        V       H0       H01     AOSYM     SMH    MOLCAS    OPER     GRID   

              2       5        8.79       700     1000      520     1800     2101   
                                         GEOM     BASIS   MCVARS    GRID      RKS  

 PROGRAMS   *        TOTAL       INT   RKS-SCF       INT
 CPU TIMES  *      1509.33      0.36   1508.10      0.68
 REAL TIME  *      1528.52 SEC
 DISK USED  *        68.46 MB (local),      273.83 MB (total)
 SF USED    *         3.52 MB
 GA USED    *         1.84 MB       (max)       1.84 MB       (current)
 **********************************************************************************************************************************

 Density functional group PBE=PBEX+PBEC
 Functional: PBEX(Automatically generated (new) PBEX)                          Gradient terms: 1
 Functional: PBEC(Automatically generated (new) PBEC)                          Gradient terms: 1
 Use libxcgrid:  F
 Use grid at  1800.2

 Functional: PBEX                      Factor:  1.0000
 Functional: PBEC                      Factor:  1.0000

 Generated new metagrid on record  1800.2 with target accuracy 1.0D-08 and 55400 points in CPU time    0.2
 Computed new grid on record 1800.1 in CPU time    0.2
  439228 words reserved for DFT integration

 PROGRAM * RKS-SCF (Restricted closed shell Kohn-Sham)     Authors: W. Meyer, H.-J. Werner, P.J. Knowles, 1993

 NUMBER OF ELECTRONS:       5+    5-    SPACE SYMMETRY=1    SPIN SYMMETRY: Singlet 
 CONVERGENCE THRESHOLDS:    1.00E-04 (Density)    1.00E-08 (Energy)
 INTEGRAL THRESHOLDS:       1.00E-11 (Initial)    1.00E-11 (Final)
 MAX. NUMBER OF ITERATIONS:       60
 INTERPOLATION TYPE:            DIIS
 INTERPOLATION STEPS:              2 (START)      1 (STEP)
 LEVEL SHIFTS:                  0.00 (CLOSED)  0.00 (OPEN) 



 Use fine grid record 1800.2 for energy threshold  1.0D-08
 Orbital guess generated from atomic densities. Full valence occupancy:    7

 Molecular orbital dump at record        2201.2

 Initial occupancy:   5

 Direct Fock-matrix evaluation.        Authors: Roland Lindh & Martin Schuetz (1993/96)

 Integral Threshold:                  0.1D-10
 Threshold for writing integrals:     0.1D-06
 Prescreening on density matrix:        ON 
 Calculation will be performed fully direct        

 ITERATION   DDIFF            GRAD            ENERGY        2-EL.EN.            DIPOLE MOMENTS         DIIS   CPU(IT)  CPU(TOT)
    1      0.000D+00      0.000D+00       -76.30159722     98.228155    0.04036    1.09886   -0.05174    0    184.6    196.4     start
    2      0.000D+00      0.671D-02       -75.91009383     81.740235   -0.01690   -0.45492    0.02133    1    185.9    382.2     diag
    3      0.533D-02      0.152D-01       -76.38772947     93.606055    0.02707    0.73708   -0.03470    2    185.8    568.1     diag
    4      0.379D-02      0.402D-03       -76.38815466     93.200375    0.02597    0.70698   -0.03329    3    162.4    730.5     diag
    5      0.178D-03      0.882D-04       -76.38816827     93.251451    0.02591    0.70549   -0.03322    4    144.0    874.5     diag
    6      0.254D-04      0.197D-04       -76.38816905     93.261988    0.02600    0.70784   -0.03333    5    130.1   1004.5     diag
    7      0.504D-05      0.921D-06       -76.38816905     93.261746    0.02600    0.70770   -0.03332    6     97.9   1102.5     diag
    8      0.249D-06      0.612D-07       -76.38816905     93.261834    0.02600    0.70772   -0.03332    0     55.2   1157.7     orth

 Final occupancy:   5

 !RKS STATE  1.1 Energy               -76.388169047646
 Nuclear energy                         9.15605698
 One-electron energy                 -122.93681427
 Two-electron energy                   46.63091690
 Density functional                    -9.23832866     PBEX=-8.91399665 PBEC=-0.32433201
 Virial quotient                       -1.00337994
 !RKS STATE  1.1 Dipole moment          0.02599636     0.70771652    -0.03332387
 Dipole moment /Debye                   0.06607183     1.79871816    -0.08469528

 Orbital energies:

         1.1          2.1          3.1          4.1          5.1          6.1          7.1
    -18.755008    -0.930818    -0.483376    -0.343716    -0.266300    -0.034715     0.014436


 HOMO      5.1    -0.266300 =      -7.2464eV
 LUMO      6.1    -0.034715 =      -0.9446eV
 LUMO-HOMO         0.231585 =       6.3018eV


 **********************************************************************************************************************************
 DATASETS  * FILE   NREC   LENGTH (MB)   RECORD NAMES
              1      19       40.76       500      610      700      900      950      970     1000      129      960     1100   
                                          VAR    BASINP    GEOM    SYMINP    ZMAT    AOBASIS   BASIS     P2S    ABASIS      S 
                                         1400     1410     1200     1210     1080     1600     1650     1700     1800   
                                           T        V       H0       H01     AOSYM     SMH    MOLCAS    OPER     GRID   

              2       6       23.02       700     1000      520     1800     2101     2201   
                                         GEOM     BASIS   MCVARS    GRID      RKS      RKS  

 PROGRAMS   *        TOTAL   RKS-SCF       INT   RKS-SCF       INT
 CPU TIMES  *      2667.63   1158.30      0.36   1508.10      0.68
 REAL TIME  *      2698.13 SEC
 DISK USED  *        81.51 MB (local),      326.05 MB (total)
 SF USED    *         3.52 MB
 GA USED    *         1.84 MB       (max)       1.84 MB       (current)
 **********************************************************************************************************************************
 SETTING EA_PBE         =       -76.38816905  AU                              

 Dummy atoms: H1  H2  O2


 Recomputing one-electron integrals since nuclear charges changed


 PROGRAM * SEWARD (Integral evaluation for generally contracted gaussian basis sets)     Author: Roland Lindh, 1990

 Geometry written to block  1 of record 700


 Point group  C1  



 ATOMIC COORDINATES

 NR  ATOM    CHARGE       X              Y              Z

   1  H1      0.00    0.056132179    9.980356960   -1.483457817
   2  H2      0.00    0.025798106   10.116220823    1.378445264
   3  C1      6.00    0.000000000    0.166779669    0.000000000
   4  O1      8.00    0.000000000    2.319083238    0.000000000
   5  O2      0.00    0.000000000    8.933124674    0.000000000

 Bond lengths in Bohr (Angstrom)

 1-5  1.816726004  2-5  1.816726007  3-4  2.152303570
     ( 0.961370000)     ( 0.961370001)     ( 1.138950000)

 Bond angles

  1-5-2  104.10700007

 NUCLEAR CHARGE:                   14
 NUMBER OF PRIMITIVE AOS:         813
 NUMBER OF SYMMETRY AOS:          598
 NUMBER OF CONTRACTIONS:          541   (  541A   )
 NUMBER OF CORE ORBITALS:           2   (    2A   )
 NUMBER OF VALENCE ORBITALS:        8   (    8A   )

 MOLECULE CHANGED: INITIALIZING OCCUPATION AND DUMP RECORDS


 NUCLEAR REPULSION ENERGY   22.30168675


 Eigenvalues of metric

         1 0.859E-05 0.103E-04 0.120E-04 0.461E-04 0.522E-04 0.695E-04 0.737E-04 0.760E-04


 OPERATOR DM      FOR CENTER  0  COORDINATES:    0.000000    0.000000    0.000000


 **********************************************************************************************************************************
 DATASETS  * FILE   NREC   LENGTH (MB)   RECORD NAMES
              1      19       40.76       500      610      700      900      950      970     1000      129      960     1100   
                                          VAR    BASINP    GEOM    SYMINP    ZMAT    AOBASIS   BASIS     P2S    ABASIS      S 
                                         1400     1410     1200     1210     1080     1600     1650     1700     1800   
                                           T        V       H0       H01     AOSYM     SMH    MOLCAS    OPER     GRID   

              2       6       23.02       700     1000      520     1800     2101     2201   
                                         GEOM     BASIS   MCVARS    GRID      RKS      RKS  

 PROGRAMS   *        TOTAL       INT   RKS-SCF       INT   RKS-SCF       INT
 CPU TIMES  *      2667.98      0.34   1158.30      0.36   1508.10      0.68
 REAL TIME  *      2698.51 SEC
 DISK USED  *        81.51 MB (local),      326.05 MB (total)
 SF USED    *         3.52 MB
 GA USED    *         1.84 MB       (max)       1.84 MB       (current)
 **********************************************************************************************************************************

 Density functional group PBE=PBEX+PBEC
 Functional: PBEX(Automatically generated (new) PBEX)                          Gradient terms: 1
 Functional: PBEC(Automatically generated (new) PBEC)                          Gradient terms: 1
 Use libxcgrid:  F
 Use grid at  1800.2

 Functional: PBEX                      Factor:  1.0000
 Functional: PBEC                      Factor:  1.0000

 Generated new metagrid on record  1800.2 with target accuracy 1.0D-08 and 55400 points in CPU time    0.1
 Computed new grid on record 1800.1 in CPU time    0.2
  439228 words reserved for DFT integration

 PROGRAM * RKS-SCF (Restricted closed shell Kohn-Sham)     Authors: W. Meyer, H.-J. Werner, P.J. Knowles, 1993

 NUMBER OF ELECTRONS:       7+    7-    SPACE SYMMETRY=1    SPIN SYMMETRY: Singlet 
 CONVERGENCE THRESHOLDS:    1.00E-04 (Density)    1.00E-08 (Energy)
 INTEGRAL THRESHOLDS:       1.00E-11 (Initial)    1.00E-11 (Final)
 MAX. NUMBER OF ITERATIONS:       60
 INTERPOLATION TYPE:            DIIS
 INTERPOLATION STEPS:              2 (START)      1 (STEP)
 LEVEL SHIFTS:                  0.00 (CLOSED)  0.00 (OPEN) 



 Use fine grid record 1800.2 for energy threshold  1.0D-08
 Orbital guess generated from atomic densities. Full valence occupancy:   10

 Molecular orbital dump at record        2301.2

 Initial occupancy:   7

 Direct Fock-matrix evaluation.        Authors: Roland Lindh & Martin Schuetz (1993/96)

 Integral Threshold:                  0.1D-10
 Threshold for writing integrals:     0.1D-06
 Prescreening on density matrix:        ON 
 Calculation will be performed fully direct        

 ITERATION   DDIFF            GRAD            ENERGY        2-EL.EN.            DIPOLE MOMENTS         DIIS   CPU(IT)  CPU(TOT)
    1      0.000D+00      0.000D+00      -113.22138215    154.899856   -0.00000   -0.07795    0.00000    0    190.0    202.3     start
    2      0.000D+00      0.288D-02      -113.12803220    148.013469   -0.00000    0.96767   -0.00000    1    177.8    380.1     diag
    3      0.247D-02      0.660D-02      -113.23298028    152.413177   -0.00000   -0.21401   -0.00000    2    170.3    550.4     diag
    4      0.212D-02      0.165D-02      -113.24184842    152.381378   -0.00000    0.08479   -0.00000    3    163.3    713.7     diag
    5      0.608D-03      0.110D-03      -113.24188618    152.306837   -0.00000    0.07922   -0.00000    4    144.8    858.6     diag
    6      0.435D-04      0.274D-04      -113.24188850    152.316172   -0.00000    0.07473   -0.00000    5    123.7    982.2     diag
    7      0.756D-05      0.284D-05      -113.24188852    152.317870   -0.00000    0.07440   -0.00000    6     94.5   1076.8     diag
    8      0.742D-06      0.204D-06      -113.24188852    152.318029   -0.00000    0.07430   -0.00000    0     67.5   1144.3     orth

 Final occupancy:   7

 !RKS STATE  1.1 Energy              -113.241888520171
 Nuclear energy                        22.30168675
 One-electron energy                 -197.95141113
 Two-electron energy                   76.15901456
 Density functional                   -13.75117870     PBEX=-13.30338631 PBEC= -0.44779239
 Virial quotient                       -1.00368562
 !RKS STATE  1.1 Dipole moment         -0.00000012     0.07429545    -0.00000016
 Dipole moment /Debye                  -0.00000030     0.18882782    -0.00000040

 Orbital energies:

         1.1          2.1          3.1          4.1          5.1          6.1          7.1          8.1          9.1
    -18.857460   -10.002953    -1.071255    -0.519403    -0.432474    -0.432474    -0.333164    -0.077686    -0.077685


 HOMO      7.1    -0.333164 =      -9.0659eV
 LUMO      8.1    -0.077686 =      -2.1139eV
 LUMO-HOMO         0.255478 =       6.9519eV


 **********************************************************************************************************************************
 DATASETS  * FILE   NREC   LENGTH (MB)   RECORD NAMES
              1      19       40.76       500      610      700      900      950      970     1000      129      960     1100   
                                          VAR    BASINP    GEOM    SYMINP    ZMAT    AOBASIS   BASIS     P2S    ABASIS      S 
                                         1400     1410     1200     1210     1080     1600     1650     1700     1800   
                                           T        V       H0       H01     AOSYM     SMH    MOLCAS    OPER     GRID   

              2       7       37.25       700     1000      520     1800     2101     2201     2301   
                                         GEOM     BASIS   MCVARS    GRID      RKS      RKS      RKS  

 PROGRAMS   *        TOTAL   RKS-SCF       INT   RKS-SCF       INT   RKS-SCF       INT
 CPU TIMES  *      3812.80   1144.82      0.34   1158.30      0.36   1508.10      0.68
 REAL TIME  *      3852.52 SEC
 DISK USED  *        95.74 MB (local),      382.97 MB (total)
 SF USED    *         3.52 MB
 GA USED    *         1.84 MB       (max)       1.84 MB       (current)
 **********************************************************************************************************************************
 SETTING EB_PBE         =      -113.24188852  AU                              
 SETTING E_AB_INT       =         0.00013857  AU                              

 *** results in hartree
 E_AB_INT         =         0.00013857 AU
 Molecular orbitals read from record     2301.2  Type=RKS/CANONICAL (state 1.1)
 Occupation numbers read from record     2301.2  Type=RKS/RHF (state 1.1)
 Orbital energies read from record       2301.2  Type=RKS/CANONICAL (state 1.1)
 Redundancy group numbers read from rec  2301.2  Type=RKS/RHF (state 1.1)

 RPBE/aug-cc-pV5Z energy=   -113.241888520171

         RKS-SCF         RKS-SCF         RKS-SCF
   -113.24188852    -76.38816905   -189.62991900
 **********************************************************************************************************************************
 Molpro calculation terminated
