
 Primary working directories    : /scratch/sirous/753758/molpro.vuLqKpUk8E
 Secondary working directories  : /scratch/sirous/753758/molpro.vuLqKpUk8E
 Wavefunction directory         : /scratch/sirous/753758/
 Main file repository           : /scratch/sirous/753758/molpro.vuLqKpUk8E/

 id        : karlovklimes

 Nodes                      nprocs
 nc-09.cc.karlov.mff.cuni.cz    4

 Using customized tuning parameters: mindgm=1; mindgv=20; mindgc=4; mindgr=1; noblas=0; minvec=7
 default implementation of scratch files=sf  


 Variables initialized (934), CPU time= 0.01 sec
 ***,CH3C6H4CN+CF3CN+BF3
 memory,1000,m
 gdirect
 gthresh,energy=1.d-8,twoint=1.d-19,oneint=1.d-19,zero=1.d-15,orbital=1.d-8,grid=1.d-8,THROVL=1.d-8
 symmetry,nosym
 geomtyp=xyz
                                                                                 ! Geometry
 geometry={
 H1        0.02970387    5.98137746     -0.78501207
 H2        0.01365177    6.05327352     0.72944182
 C1        0.00000000    0.08825600     0.00000000
 O1        0.00000000    1.22720600     0.00000000
 O2        0.00000000    5.42720600     0.00000000
 }
 
 
 
 basis=av5z
 
 
 
                                                                                 ! Dimer Calculation
 {rks,pbe,accu=1.d-8;orbital,2101.2}
 eab_PBE=energy
 
 
                                                                                 !monomer A
 dummy,3,4;                                                                      ! NOW MONOMER B IS DUMMY
 {rks,pbe,accu=1.d-8;orbital,2201.2}
 ea_PBE=energy
                                                                                 !monomer B
 dummy,1,2,5;                                                                    !NOW MONOMER A IS DUMMY
 {rks,pbe,accu=1.d-8;orbital,2301.2}
 eb_PBE=energy
 
 E_AB_int=eab_PBE-ea_PBE-eb_PBE
 
 
 text,results in hartree
 show,E_AB_int
 
 Commands  initialized (763), CPU time= 0.02 sec, 617 directives.
 Default parameters read. Elapsed time= 0.23 sec

 Checking input...
 Passed
1


                                         ***  PROGRAM SYSTEM MOLPRO  ***
                                       Copyright, TTI GmbH Stuttgart, 2015
                                    Version 2019.2 linked Jun  8 2019 11:26:33


 **********************************************************************************************************************************
 LABEL *   CH3C6H4CN+CF3CN+BF3                                                           
  64 bit mpp version                                                                     DATE: 23-Jul-20          TIME: 10:06:08  
 **********************************************************************************************************************************

 SHA1:             8135a10abc80eafa5b3ae28ffc55be4890dc4c84
 **********************************************************************************************************************************

 THRESHOLDS:

 ZERO    =  1.00D-15  ONEINT  =  1.00D-19  TWOINT  =  1.00D-19  PREFAC  =  1.00D-14  XXXXXX  =  1.00D-09  EORDER  =  1.00D-04
 ENERGY  =  1.00D-08  ETEST   =  0.00D+00  EDENS   =  0.00D+00  THRDEDEF=  1.00D-06  GRADIENT=  1.00D-02  STEP    =  1.00D-03
 ORBITAL =  1.00D-08  CIVEC   =  1.00D-05  COEFF   =  1.00D-04  PRINTCI =  5.00D-02  PUNCHCI =  9.90D+01  OPTGRAD =  3.00D-04
 OPTENERG=  1.00D-06  OPTSTEP =  3.00D-04  THRGRAD =  1.00D-10  COMPRESS=  1.00D-11  VARMIN  =  1.00D-07  VARMAX  =  1.00D-03
 THRDOUB =  0.00D+00  THRDIV  =  1.00D-05  THRRED  =  1.00D-07  THRPSP  =  1.00D+00  THRDC   =  1.00D-10  THRCS   =  1.00D-10
 THRNRM  =  1.00D-08  THREQ   =  0.00D+00  THRDE   =  1.00D+00  THRREF  =  1.00D-05  SPARFAC =  1.00D+00  THRDLP  =  1.00D-07
 THRDIA  =  1.00D-10  THRDLS  =  1.00D-07  THRGPS  =  0.00D+00  THRKEX  =  0.00D+00  THRDIS  =  2.00D-01  THRVAR  =  1.00D-10
 THRLOC  =  1.00D-06  THRGAP  =  1.00D-06  THRLOCT = -1.00D+00  THRGAPT = -1.00D+00  THRORB  =  1.00D-06  THRMLTP =  0.00D+00
 THRCPQCI=  1.00D-10  KEXTA   =  0.00D+00  THRCOARS=  0.00D+00  SYMTOL  =  1.00D-06  GRADTOL =  1.00D-06  THROVL  =  1.00D-08
 THRORTH =  1.00D-08  GRID    =  1.00D-08  GRIDMAX =  1.00D-03  DTMAX   =  0.00D+00  THROCCDE=  1.00D-01  THROCCDE=  1.00D-01
 THRPRINT=  2.50D-01


 Variable memory set to 1000000000 words,  buffer space 

 SETTING GEOMTYP        =    XYZ
 ZSYMEL=NOSYM

 SETTING BASIS          =    AV5Z


 Recomputing integrals since basis changed


 Using spherical harmonics

 Library entry H      S aug-cc-pV5Z          selected for orbital group  1
 Library entry H      P aug-cc-pV5Z          selected for orbital group  1
 Library entry H      D aug-cc-pV5Z          selected for orbital group  1
 Library entry H      F aug-cc-pV5Z          selected for orbital group  1
 Library entry H      G aug-cc-pV5Z          selected for orbital group  1
 Library entry C      S aug-cc-pV5Z          selected for orbital group  2
 Library entry C      P aug-cc-pV5Z          selected for orbital group  2
 Library entry C      D aug-cc-pV5Z          selected for orbital group  2
 Library entry C      F aug-cc-pV5Z          selected for orbital group  2
 Library entry C      G aug-cc-pV5Z          selected for orbital group  2
 Library entry C      H aug-cc-pV5Z          selected for orbital group  2
 Library entry O      S aug-cc-pV5Z          selected for orbital group  3
 Library entry O      P aug-cc-pV5Z          selected for orbital group  3
 Library entry O      D aug-cc-pV5Z          selected for orbital group  3
 Library entry O      F aug-cc-pV5Z          selected for orbital group  3
 Library entry O      G aug-cc-pV5Z          selected for orbital group  3
 Library entry O      H aug-cc-pV5Z          selected for orbital group  3


 PROGRAM * SEWARD (Integral evaluation for generally contracted gaussian basis sets)     Author: Roland Lindh, 1990

 Geometry written to block  1 of record 700


 Point group  C1  



 ATOMIC COORDINATES

 NR  ATOM    CHARGE       X              Y              Z

   1  H1      1.00    0.056132179   11.303165247   -1.483457817
   2  H2      1.00    0.025798106   11.439029110    1.378445264
   3  C1      6.00    0.000000000    0.166779669    0.000000000
   4  O1      8.00    0.000000000    2.319083238    0.000000000
   5  O2      8.00    0.000000000   10.255932962    0.000000000

 Bond lengths in Bohr (Angstrom)

 1-5  1.816726004  2-5  1.816726007  3-4  2.152303570
     ( 0.961370000)     ( 0.961370001)     ( 1.138950000)

 Bond angles

  1-5-2  104.10700007

 NUCLEAR CHARGE:                   24
 NUMBER OF PRIMITIVE AOS:         813
 NUMBER OF SYMMETRY AOS:          598
 NUMBER OF CONTRACTIONS:          541   (  541A   )
 NUMBER OF CORE ORBITALS:           3   (    3A   )
 NUMBER OF VALENCE ORBITALS:       14   (   14A   )


 NUCLEAR REPULSION ENERGY   47.08726894


 Eigenvalues of metric

         1 0.992E-05 0.120E-04 0.128E-04 0.562E-04 0.628E-04 0.725E-04 0.808E-04 0.821E-04


 OPERATOR DM      FOR CENTER  0  COORDINATES:    0.000000    0.000000    0.000000


 **********************************************************************************************************************************
 DATASETS  * FILE   NREC   LENGTH (MB)   RECORD NAMES
              1      18       40.76       500      610      700      900      950      970     1000      129      960     1100   
                                          VAR    BASINP    GEOM    SYMINP    ZMAT    AOBASIS   BASIS     P2S    ABASIS      S 
                                         1400     1410     1200     1210     1080     1600     1650     1700   
                                           T        V       H0       H01     AOSYM     SMH    MOLCAS    OPER   

 PROGRAMS   *        TOTAL       INT
 CPU TIMES  *         0.88      0.70
 REAL TIME  *         1.95 SEC
 DISK USED  *        41.29 MB (local),      165.18 MB (total)
 GA USED    *         0.00 MB       (max)       0.00 MB       (current)
 **********************************************************************************************************************************

 Density functional group PBE=PBEX+PBEC
 Functional: PBEX(Automatically generated (new) PBEX)                          Gradient terms: 1
 Functional: PBEC(Automatically generated (new) PBEC)                          Gradient terms: 1
 Use libxcgrid:  F
 Use grid at  1800.2

 Functional: PBEX                      Factor:  1.0000
 Functional: PBEC                      Factor:  1.0000

 Generated new metagrid on record  1800.2 with target accuracy 1.0D-08 and 55400 points in CPU time    0.2
 Computed new grid on record 1800.1 in CPU time    0.2
  439228 words reserved for DFT integration

 PROGRAM * RKS-SCF (Restricted closed shell Kohn-Sham)     Authors: W. Meyer, H.-J. Werner, P.J. Knowles, 1993

 NUMBER OF ELECTRONS:      12+   12-    SPACE SYMMETRY=1    SPIN SYMMETRY: Singlet 
 CONVERGENCE THRESHOLDS:    1.00E-04 (Density)    1.00E-08 (Energy)
 INTEGRAL THRESHOLDS:       1.00E-11 (Initial)    1.00E-11 (Final)
 MAX. NUMBER OF ITERATIONS:       60
 INTERPOLATION TYPE:            DIIS
 INTERPOLATION STEPS:              2 (START)      1 (STEP)
 LEVEL SHIFTS:                  0.00 (CLOSED)  0.00 (OPEN) 



 Use fine grid record 1800.2 for energy threshold  1.0D-08
 Orbital guess generated from atomic densities. Full valence occupancy:   17

 Molecular orbital dump at record        2101.2

 Initial occupancy:  12

 Direct Fock-matrix evaluation.        Authors: Roland Lindh & Martin Schuetz (1993/96)

 Integral Threshold:                  0.1D-10
 Threshold for writing integrals:     0.1D-06
 Prescreening on density matrix:        ON 
 Calculation will be performed fully direct        

 ITERATION   DDIFF            GRAD            ENERGY        2-EL.EN.            DIPOLE MOMENTS         DIIS   CPU(IT)  CPU(TOT)
    1      0.000D+00      0.000D+00      -189.52230822    284.828574    0.04036    1.02112   -0.05174    0    169.5    182.3     start
    2      0.000D+00      0.490D-02      -189.01852380    260.452080   -0.01766    0.60663    0.02316    1    162.8    345.2     diag
    3      0.585D-02      0.113D-01      -189.61704927    277.673999    0.02656    0.48687   -0.03348    2    160.7    505.9     diag
    4      0.433D-02      0.155D-02      -189.62332271    276.933596    0.02757    1.06208   -0.03499    3    152.7    658.6     diag
    5      0.104D-02      0.121D-02      -189.62982285    277.166763    0.02570    0.82461   -0.03263    4    149.7    808.3     diag
    6      0.446D-03      0.165D-03      -189.62996698    277.043966    0.02573    0.81026   -0.03261    5    146.3    954.6     diag
    7      0.953D-04      0.249D-04      -189.62996997    277.080211    0.02578    0.80796   -0.03269    6    135.1   1089.7     diag
    8      0.104D-04      0.249D-05      -189.62996999    277.080651    0.02580    0.80859   -0.03270    7    119.8   1209.4     diag
    9      0.836D-06      0.469D-06      -189.62996999    277.081088    0.02579    0.80824   -0.03270    0    103.2   1312.7     orth

 Final occupancy:  12

 !RKS STATE  1.1 Energy              -189.629969990994
 Nuclear energy                        47.08726894
 One-electron energy                 -352.26902743
 Two-electron energy                  138.54054395
 Density functional                   -22.98875546     PBEX=-22.21662745 PBEC= -0.77212801
 Virial quotient                       -1.00357230
 !RKS STATE  1.1 Dipole moment          0.02579355     0.80824128    -0.03270203
 Dipole moment /Debye                   0.06555637     2.05420987    -0.08311482

 Orbital energies:

         1.1          2.1          3.1          4.1          5.1          6.1          7.1          8.1          9.1         10.1
    -18.849057   -18.754844    -9.994567    -1.062654    -0.930621    -0.509670    -0.483185    -0.423913    -0.423869    -0.343433

        11.1         12.1         13.1         14.1
     -0.325778    -0.266094    -0.070055    -0.070009


 HOMO     12.1    -0.266094 =      -7.2408eV
 LUMO     13.1    -0.070055 =      -1.9063eV
 LUMO-HOMO         0.196038 =       5.3345eV


 **********************************************************************************************************************************
 DATASETS  * FILE   NREC   LENGTH (MB)   RECORD NAMES
              1      19       40.76       500      610      700      900      950      970     1000      129      960     1100   
                                          VAR    BASINP    GEOM    SYMINP    ZMAT    AOBASIS   BASIS     P2S    ABASIS      S 
                                         1400     1410     1200     1210     1080     1600     1650     1700     1800   
                                           T        V       H0       H01     AOSYM     SMH    MOLCAS    OPER     GRID   

              2       5        8.79       700     1000      520     1800     2101   
                                         GEOM     BASIS   MCVARS    GRID      RKS  

 PROGRAMS   *        TOTAL   RKS-SCF       INT
 CPU TIMES  *      1314.11   1313.23      0.70
 REAL TIME  *      1331.86 SEC
 DISK USED  *        68.46 MB (local),      273.83 MB (total)
 SF USED    *         3.52 MB
 GA USED    *         1.84 MB       (max)       1.84 MB       (current)
 **********************************************************************************************************************************
 SETTING EAB_PBE        =      -189.62996999  AU                              

 Dummy atoms: C1  O1


 Recomputing one-electron integrals since nuclear charges changed


 PROGRAM * SEWARD (Integral evaluation for generally contracted gaussian basis sets)     Author: Roland Lindh, 1990

 Geometry written to block  1 of record 700


 Point group  C1  



 ATOMIC COORDINATES

 NR  ATOM    CHARGE       X              Y              Z

   1  H1      1.00    0.056132179   11.303165247   -1.483457817
   2  H2      1.00    0.025798106   11.439029110    1.378445264
   3  C1      0.00    0.000000000    0.166779669    0.000000000
   4  O1      0.00    0.000000000    2.319083238    0.000000000
   5  O2      8.00    0.000000000   10.255932962    0.000000000

 Bond lengths in Bohr (Angstrom)

 1-5  1.816726004  2-5  1.816726007  3-4  2.152303570
     ( 0.961370000)     ( 0.961370001)     ( 1.138950000)

 Bond angles

  1-5-2  104.10700007

 NUCLEAR CHARGE:                   10
 NUMBER OF PRIMITIVE AOS:         813
 NUMBER OF SYMMETRY AOS:          598
 NUMBER OF CONTRACTIONS:          541   (  541A   )
 NUMBER OF CORE ORBITALS:           1   (    1A   )
 NUMBER OF VALENCE ORBITALS:        6   (    6A   )

 MOLECULE CHANGED: INITIALIZING OCCUPATION AND DUMP RECORDS


 NUCLEAR REPULSION ENERGY    9.15605698


 Eigenvalues of metric

         1 0.992E-05 0.120E-04 0.128E-04 0.562E-04 0.628E-04 0.725E-04 0.808E-04 0.821E-04


 OPERATOR DM      FOR CENTER  0  COORDINATES:    0.000000    0.000000    0.000000


 **********************************************************************************************************************************
 DATASETS  * FILE   NREC   LENGTH (MB)   RECORD NAMES
              1      19       40.76       500      610      700      900      950      970     1000      129      960     1100   
                                          VAR    BASINP    GEOM    SYMINP    ZMAT    AOBASIS   BASIS     P2S    ABASIS      S 
                                         1400     1410     1200     1210     1080     1600     1650     1700     1800   
                                           T        V       H0       H01     AOSYM     SMH    MOLCAS    OPER     GRID   

              2       5        8.79       700     1000      520     1800     2101   
                                         GEOM     BASIS   MCVARS    GRID      RKS  

 PROGRAMS   *        TOTAL       INT   RKS-SCF       INT
 CPU TIMES  *      1314.45      0.34   1313.23      0.70
 REAL TIME  *      1332.24 SEC
 DISK USED  *        68.46 MB (local),      273.83 MB (total)
 SF USED    *         3.52 MB
 GA USED    *         1.84 MB       (max)       1.84 MB       (current)
 **********************************************************************************************************************************

 Density functional group PBE=PBEX+PBEC
 Functional: PBEX(Automatically generated (new) PBEX)                          Gradient terms: 1
 Functional: PBEC(Automatically generated (new) PBEC)                          Gradient terms: 1
 Use libxcgrid:  F
 Use grid at  1800.2

 Functional: PBEX                      Factor:  1.0000
 Functional: PBEC                      Factor:  1.0000

 Generated new metagrid on record  1800.2 with target accuracy 1.0D-08 and 55400 points in CPU time    0.2
 Computed new grid on record 1800.1 in CPU time    0.2
  439228 words reserved for DFT integration

 PROGRAM * RKS-SCF (Restricted closed shell Kohn-Sham)     Authors: W. Meyer, H.-J. Werner, P.J. Knowles, 1993

 NUMBER OF ELECTRONS:       5+    5-    SPACE SYMMETRY=1    SPIN SYMMETRY: Singlet 
 CONVERGENCE THRESHOLDS:    1.00E-04 (Density)    1.00E-08 (Energy)
 INTEGRAL THRESHOLDS:       1.00E-11 (Initial)    1.00E-11 (Final)
 MAX. NUMBER OF ITERATIONS:       60
 INTERPOLATION TYPE:            DIIS
 INTERPOLATION STEPS:              2 (START)      1 (STEP)
 LEVEL SHIFTS:                  0.00 (CLOSED)  0.00 (OPEN) 



 Use fine grid record 1800.2 for energy threshold  1.0D-08
 Orbital guess generated from atomic densities. Full valence occupancy:    7

 Molecular orbital dump at record        2201.2

 Initial occupancy:   5

 Direct Fock-matrix evaluation.        Authors: Roland Lindh & Martin Schuetz (1993/96)

 Integral Threshold:                  0.1D-10
 Threshold for writing integrals:     0.1D-06
 Prescreening on density matrix:        ON 
 Calculation will be performed fully direct        

 ITERATION   DDIFF            GRAD            ENERGY        2-EL.EN.            DIPOLE MOMENTS         DIIS   CPU(IT)  CPU(TOT)
    1      0.000D+00      0.000D+00       -76.30160047     98.228115    0.04036    1.09887   -0.05174    0    160.2    171.9     start
    2      0.000D+00      0.671D-02       -75.91028606     81.743527   -0.01674   -0.45336    0.02127    1    157.5    329.4     diag
    3      0.524D-02      0.152D-01       -76.38773224     93.605824    0.02708    0.73705   -0.03470    2    156.8    486.2     diag
    4      0.369D-02      0.402D-03       -76.38815678     93.200471    0.02597    0.70699   -0.03329    3    142.9    629.1     diag
    5      0.169D-03      0.881D-04       -76.38817037     93.251489    0.02592    0.70550   -0.03322    4    125.9    754.9     diag
    6      0.242D-04      0.197D-04       -76.38817114     93.262020    0.02600    0.70784   -0.03333    5    116.0    871.0     diag
    7      0.490D-05      0.921D-06       -76.38817114     93.261776    0.02600    0.70770   -0.03332    6     87.8    958.8     diag
    8      0.235D-06      0.610D-07       -76.38817114     93.261864    0.02600    0.70772   -0.03333    0     45.9   1004.8     orth

 Final occupancy:   5

 !RKS STATE  1.1 Energy               -76.388171144721
 Nuclear energy                         9.15605698
 One-electron energy                 -122.93682741
 Two-electron energy                   46.63093192
 Density functional                    -9.23833264     PBEX=-8.91400024 PBEC=-0.32433240
 Virial quotient                       -1.00338014
 !RKS STATE  1.1 Dipole moment          0.02599980     0.70772026    -0.03332587
 Dipole moment /Debye                   0.06608058     1.79872766    -0.08470036

 Orbital energies:

         1.1          2.1          3.1          4.1          5.1          6.1          7.1
    -18.755006    -0.930817    -0.483375    -0.343715    -0.266299    -0.034691     0.014425


 HOMO      5.1    -0.266299 =      -7.2464eV
 LUMO      6.1    -0.034691 =      -0.9440eV
 LUMO-HOMO         0.231608 =       6.3024eV


 **********************************************************************************************************************************
 DATASETS  * FILE   NREC   LENGTH (MB)   RECORD NAMES
              1      19       40.76       500      610      700      900      950      970     1000      129      960     1100   
                                          VAR    BASINP    GEOM    SYMINP    ZMAT    AOBASIS   BASIS     P2S    ABASIS      S 
                                         1400     1410     1200     1210     1080     1600     1650     1700     1800   
                                           T        V       H0       H01     AOSYM     SMH    MOLCAS    OPER     GRID   

              2       6       23.02       700     1000      520     1800     2101     2201   
                                         GEOM     BASIS   MCVARS    GRID      RKS      RKS  

 PROGRAMS   *        TOTAL   RKS-SCF       INT   RKS-SCF       INT
 CPU TIMES  *      2319.76   1005.31      0.34   1313.23      0.70
 REAL TIME  *      2346.93 SEC
 DISK USED  *        81.51 MB (local),      326.05 MB (total)
 SF USED    *         3.52 MB
 GA USED    *         1.84 MB       (max)       1.84 MB       (current)
 **********************************************************************************************************************************
 SETTING EA_PBE         =       -76.38817114  AU                              

 Dummy atoms: H1  H2  O2


 Recomputing one-electron integrals since nuclear charges changed


 PROGRAM * SEWARD (Integral evaluation for generally contracted gaussian basis sets)     Author: Roland Lindh, 1990

 Geometry written to block  1 of record 700


 Point group  C1  



 ATOMIC COORDINATES

 NR  ATOM    CHARGE       X              Y              Z

   1  H1      0.00    0.056132179   11.303165247   -1.483457817
   2  H2      0.00    0.025798106   11.439029110    1.378445264
   3  C1      6.00    0.000000000    0.166779669    0.000000000
   4  O1      8.00    0.000000000    2.319083238    0.000000000
   5  O2      0.00    0.000000000   10.255932962    0.000000000

 Bond lengths in Bohr (Angstrom)

 1-5  1.816726004  2-5  1.816726007  3-4  2.152303570
     ( 0.961370000)     ( 0.961370001)     ( 1.138950000)

 Bond angles

  1-5-2  104.10700007

 NUCLEAR CHARGE:                   14
 NUMBER OF PRIMITIVE AOS:         813
 NUMBER OF SYMMETRY AOS:          598
 NUMBER OF CONTRACTIONS:          541   (  541A   )
 NUMBER OF CORE ORBITALS:           2   (    2A   )
 NUMBER OF VALENCE ORBITALS:        8   (    8A   )

 MOLECULE CHANGED: INITIALIZING OCCUPATION AND DUMP RECORDS


 NUCLEAR REPULSION ENERGY   22.30168675


 Eigenvalues of metric

         1 0.992E-05 0.120E-04 0.128E-04 0.562E-04 0.628E-04 0.725E-04 0.808E-04 0.821E-04


 OPERATOR DM      FOR CENTER  0  COORDINATES:    0.000000    0.000000    0.000000


 **********************************************************************************************************************************
 DATASETS  * FILE   NREC   LENGTH (MB)   RECORD NAMES
              1      19       40.76       500      610      700      900      950      970     1000      129      960     1100   
                                          VAR    BASINP    GEOM    SYMINP    ZMAT    AOBASIS   BASIS     P2S    ABASIS      S 
                                         1400     1410     1200     1210     1080     1600     1650     1700     1800   
                                           T        V       H0       H01     AOSYM     SMH    MOLCAS    OPER     GRID   

              2       6       23.02       700     1000      520     1800     2101     2201   
                                         GEOM     BASIS   MCVARS    GRID      RKS      RKS  

 PROGRAMS   *        TOTAL       INT   RKS-SCF       INT   RKS-SCF       INT
 CPU TIMES  *      2320.12      0.34   1005.31      0.34   1313.23      0.70
 REAL TIME  *      2347.31 SEC
 DISK USED  *        81.51 MB (local),      326.05 MB (total)
 SF USED    *         3.52 MB
 GA USED    *         1.84 MB       (max)       1.84 MB       (current)
 **********************************************************************************************************************************

 Density functional group PBE=PBEX+PBEC
 Functional: PBEX(Automatically generated (new) PBEX)                          Gradient terms: 1
 Functional: PBEC(Automatically generated (new) PBEC)                          Gradient terms: 1
 Use libxcgrid:  F
 Use grid at  1800.2

 Functional: PBEX                      Factor:  1.0000
 Functional: PBEC                      Factor:  1.0000

 Generated new metagrid on record  1800.2 with target accuracy 1.0D-08 and 55400 points in CPU time    0.2
 Computed new grid on record 1800.1 in CPU time    0.2
  439228 words reserved for DFT integration

 PROGRAM * RKS-SCF (Restricted closed shell Kohn-Sham)     Authors: W. Meyer, H.-J. Werner, P.J. Knowles, 1993

 NUMBER OF ELECTRONS:       7+    7-    SPACE SYMMETRY=1    SPIN SYMMETRY: Singlet 
 CONVERGENCE THRESHOLDS:    1.00E-04 (Density)    1.00E-08 (Energy)
 INTEGRAL THRESHOLDS:       1.00E-11 (Initial)    1.00E-11 (Final)
 MAX. NUMBER OF ITERATIONS:       60
 INTERPOLATION TYPE:            DIIS
 INTERPOLATION STEPS:              2 (START)      1 (STEP)
 LEVEL SHIFTS:                  0.00 (CLOSED)  0.00 (OPEN) 



 Use fine grid record 1800.2 for energy threshold  1.0D-08
 Orbital guess generated from atomic densities. Full valence occupancy:   10

 Molecular orbital dump at record        2301.2

 Initial occupancy:   7

 Direct Fock-matrix evaluation.        Authors: Roland Lindh & Martin Schuetz (1993/96)

 Integral Threshold:                  0.1D-10
 Threshold for writing integrals:     0.1D-06
 Prescreening on density matrix:        ON 
 Calculation will be performed fully direct        

 ITERATION   DDIFF            GRAD            ENERGY        2-EL.EN.            DIPOLE MOMENTS         DIIS   CPU(IT)  CPU(TOT)
    1      0.000D+00      0.000D+00      -113.22138097    154.899857   -0.00000   -0.07794    0.00000    0    163.2    175.3     start
    2      0.000D+00      0.288D-02      -113.12803086    148.013465    0.00000    0.96767   -0.00000    1    152.9    328.1     diag
    3      0.247D-02      0.660D-02      -113.23297920    152.413173   -0.00000   -0.21401    0.00000    2    147.0    475.1     diag
    4      0.212D-02      0.165D-02      -113.24184726    152.381377   -0.00000    0.08479    0.00000    3    139.4    614.5     diag
    5      0.608D-03      0.110D-03      -113.24188501    152.306838   -0.00000    0.07922    0.00000    4    125.9    740.4     diag
    6      0.434D-04      0.274D-04      -113.24188734    152.316172   -0.00000    0.07473    0.00000    5    103.2    843.7     diag
    7      0.760D-05      0.284D-05      -113.24188736    152.317870   -0.00000    0.07440    0.00000    6     84.9    928.6     diag
    8      0.741D-06      0.204D-06      -113.24188736    152.318030   -0.00000    0.07430    0.00000    0     62.4    991.0     orth

 Final occupancy:   7

 !RKS STATE  1.1 Energy              -113.241887358531
 Nuclear energy                        22.30168675
 One-electron energy                 -197.95140997
 Two-electron energy                   76.15901501
 Density functional                   -13.75117915     PBEX=-13.30338663 PBEC= -0.44779252
 Virial quotient                       -1.00368592
 !RKS STATE  1.1 Dipole moment         -0.00000003     0.07429559     0.00000008
 Dipole moment /Debye                  -0.00000008     0.18882819     0.00000022

 Orbital energies:

         1.1          2.1          3.1          4.1          5.1          6.1          7.1          8.1          9.1
    -18.857459   -10.002952    -1.071256    -0.519403    -0.432474    -0.432474    -0.333164    -0.077685    -0.077685


 HOMO      7.1    -0.333164 =      -9.0659eV
 LUMO      8.1    -0.077685 =      -2.1139eV
 LUMO-HOMO         0.255479 =       6.9519eV


 **********************************************************************************************************************************
 DATASETS  * FILE   NREC   LENGTH (MB)   RECORD NAMES
              1      19       40.76       500      610      700      900      950      970     1000      129      960     1100   
                                          VAR    BASINP    GEOM    SYMINP    ZMAT    AOBASIS   BASIS     P2S    ABASIS      S 
                                         1400     1410     1200     1210     1080     1600     1650     1700     1800   
                                           T        V       H0       H01     AOSYM     SMH    MOLCAS    OPER     GRID   

              2       7       37.25       700     1000      520     1800     2101     2201     2301   
                                         GEOM     BASIS   MCVARS    GRID      RKS      RKS      RKS  

 PROGRAMS   *        TOTAL   RKS-SCF       INT   RKS-SCF       INT   RKS-SCF       INT
 CPU TIMES  *      3311.71    991.60      0.34   1005.31      0.34   1313.23      0.70
 REAL TIME  *      3349.02 SEC
 DISK USED  *        95.74 MB (local),      382.97 MB (total)
 SF USED    *         3.52 MB
 GA USED    *         1.84 MB       (max)       1.84 MB       (current)
 **********************************************************************************************************************************
 SETTING EB_PBE         =      -113.24188736  AU                              
 SETTING E_AB_INT       =     8.85122589D-05  AU                              

 *** results in hartree
 E_AB_INT         =         0.00008851 AU
 Molecular orbitals read from record     2301.2  Type=RKS/CANONICAL (state 1.1)
 Occupation numbers read from record     2301.2  Type=RKS/RHF (state 1.1)
 Orbital energies read from record       2301.2  Type=RKS/CANONICAL (state 1.1)
 Redundancy group numbers read from rec  2301.2  Type=RKS/RHF (state 1.1)

 RPBE/aug-cc-pV5Z energy=   -113.241887358531

         RKS-SCF         RKS-SCF         RKS-SCF
   -113.24188736    -76.38817114   -189.62996999
 **********************************************************************************************************************************
 Molpro calculation terminated
