
 Primary working directories    : /scratch/sirous/753759/molpro.wW7mPaMSDx
 Secondary working directories  : /scratch/sirous/753759/molpro.wW7mPaMSDx
 Wavefunction directory         : /scratch/sirous/753759/
 Main file repository           : /scratch/sirous/753759/molpro.wW7mPaMSDx/

 id        : karlovklimes

 Nodes                      nprocs
 nc-09.cc.karlov.mff.cuni.cz    4

 Using customized tuning parameters: mindgm=1; mindgv=20; mindgc=4; mindgr=1; noblas=0; minvec=7
 default implementation of scratch files=sf  


 Variables initialized (934), CPU time= 0.00 sec
 ***,CH3C6H4CN+CF3CN+BF3
 memory,1000,m
 gdirect
 gthresh,energy=1.d-8,twoint=1.d-19,oneint=1.d-19,zero=1.d-15,orbital=1.d-8,grid=1.d-8,THROVL=1.d-8
 symmetry,nosym
 geomtyp=xyz
                                                                                 ! Geometry
 geometry={
 H1        0.02970387    6.08137746     -0.78501207
 H2        0.01365177    6.15327352     0.72944182
 C1        0.00000000    0.08825600     0.00000000
 O1        0.00000000    1.22720600     0.00000000
 O2        0.00000000    5.52720600     0.00000000
 }
 
 
 
 basis=av5z
 
 
 
                                                                                 ! Dimer Calculation
 {rks,pbe,accu=1.d-8;orbital,2101.2}
 eab_PBE=energy
 
 
                                                                                 !monomer A
 dummy,3,4;                                                                      ! NOW MONOMER B IS DUMMY
 {rks,pbe,accu=1.d-8;orbital,2201.2}
 ea_PBE=energy
                                                                                 !monomer B
 dummy,1,2,5;                                                                    !NOW MONOMER A IS DUMMY
 {rks,pbe,accu=1.d-8;orbital,2301.2}
 eb_PBE=energy
 
 E_AB_int=eab_PBE-ea_PBE-eb_PBE
 
 
 text,results in hartree
 show,E_AB_int
 
 Commands  initialized (763), CPU time= 0.02 sec, 617 directives.
 Default parameters read. Elapsed time= 0.17 sec

 Checking input...
 Passed
1


                                         ***  PROGRAM SYSTEM MOLPRO  ***
                                       Copyright, TTI GmbH Stuttgart, 2015
                                    Version 2019.2 linked Jun  8 2019 11:26:33


 **********************************************************************************************************************************
 LABEL *   CH3C6H4CN+CF3CN+BF3                                                           
  64 bit mpp version                                                                     DATE: 23-Jul-20          TIME: 10:06:08  
 **********************************************************************************************************************************

 SHA1:             8135a10abc80eafa5b3ae28ffc55be4890dc4c84
 **********************************************************************************************************************************

 THRESHOLDS:

 ZERO    =  1.00D-15  ONEINT  =  1.00D-19  TWOINT  =  1.00D-19  PREFAC  =  1.00D-14  XXXXXX  =  1.00D-09  EORDER  =  1.00D-04
 ENERGY  =  1.00D-08  ETEST   =  0.00D+00  EDENS   =  0.00D+00  THRDEDEF=  1.00D-06  GRADIENT=  1.00D-02  STEP    =  1.00D-03
 ORBITAL =  1.00D-08  CIVEC   =  1.00D-05  COEFF   =  1.00D-04  PRINTCI =  5.00D-02  PUNCHCI =  9.90D+01  OPTGRAD =  3.00D-04
 OPTENERG=  1.00D-06  OPTSTEP =  3.00D-04  THRGRAD =  1.00D-10  COMPRESS=  1.00D-11  VARMIN  =  1.00D-07  VARMAX  =  1.00D-03
 THRDOUB =  0.00D+00  THRDIV  =  1.00D-05  THRRED  =  1.00D-07  THRPSP  =  1.00D+00  THRDC   =  1.00D-10  THRCS   =  1.00D-10
 THRNRM  =  1.00D-08  THREQ   =  0.00D+00  THRDE   =  1.00D+00  THRREF  =  1.00D-05  SPARFAC =  1.00D+00  THRDLP  =  1.00D-07
 THRDIA  =  1.00D-10  THRDLS  =  1.00D-07  THRGPS  =  0.00D+00  THRKEX  =  0.00D+00  THRDIS  =  2.00D-01  THRVAR  =  1.00D-10
 THRLOC  =  1.00D-06  THRGAP  =  1.00D-06  THRLOCT = -1.00D+00  THRGAPT = -1.00D+00  THRORB  =  1.00D-06  THRMLTP =  0.00D+00
 THRCPQCI=  1.00D-10  KEXTA   =  0.00D+00  THRCOARS=  0.00D+00  SYMTOL  =  1.00D-06  GRADTOL =  1.00D-06  THROVL  =  1.00D-08
 THRORTH =  1.00D-08  GRID    =  1.00D-08  GRIDMAX =  1.00D-03  DTMAX   =  0.00D+00  THROCCDE=  1.00D-01  THROCCDE=  1.00D-01
 THRPRINT=  2.50D-01


 Variable memory set to 1000000000 words,  buffer space 

 SETTING GEOMTYP        =    XYZ
 ZSYMEL=NOSYM

 SETTING BASIS          =    AV5Z


 Recomputing integrals since basis changed


 Using spherical harmonics

 Library entry H      S aug-cc-pV5Z          selected for orbital group  1
 Library entry H      P aug-cc-pV5Z          selected for orbital group  1
 Library entry H      D aug-cc-pV5Z          selected for orbital group  1
 Library entry H      F aug-cc-pV5Z          selected for orbital group  1
 Library entry H      G aug-cc-pV5Z          selected for orbital group  1
 Library entry C      S aug-cc-pV5Z          selected for orbital group  2
 Library entry C      P aug-cc-pV5Z          selected for orbital group  2
 Library entry C      D aug-cc-pV5Z          selected for orbital group  2
 Library entry C      F aug-cc-pV5Z          selected for orbital group  2
 Library entry C      G aug-cc-pV5Z          selected for orbital group  2
 Library entry C      H aug-cc-pV5Z          selected for orbital group  2
 Library entry O      S aug-cc-pV5Z          selected for orbital group  3
 Library entry O      P aug-cc-pV5Z          selected for orbital group  3
 Library entry O      D aug-cc-pV5Z          selected for orbital group  3
 Library entry O      F aug-cc-pV5Z          selected for orbital group  3
 Library entry O      G aug-cc-pV5Z          selected for orbital group  3
 Library entry O      H aug-cc-pV5Z          selected for orbital group  3


 PROGRAM * SEWARD (Integral evaluation for generally contracted gaussian basis sets)     Author: Roland Lindh, 1990

 Geometry written to block  1 of record 700


 Point group  C1  



 ATOMIC COORDINATES

 NR  ATOM    CHARGE       X              Y              Z

   1  H1      1.00    0.056132179   11.492137860   -1.483457817
   2  H2      1.00    0.025798106   11.628001722    1.378445264
   3  C1      6.00    0.000000000    0.166779669    0.000000000
   4  O1      8.00    0.000000000    2.319083238    0.000000000
   5  O2      8.00    0.000000000   10.444905574    0.000000000

 Bond lengths in Bohr (Angstrom)

 1-5  1.816726004  2-5  1.816726007  3-4  2.152303570
     ( 0.961370000)     ( 0.961370001)     ( 1.138950000)

 Bond angles

  1-5-2  104.10700007

 NUCLEAR CHARGE:                   24
 NUMBER OF PRIMITIVE AOS:         813
 NUMBER OF SYMMETRY AOS:          598
 NUMBER OF CONTRACTIONS:          541   (  541A   )
 NUMBER OF CORE ORBITALS:           3   (    3A   )
 NUMBER OF VALENCE ORBITALS:       14   (   14A   )


 NUCLEAR REPULSION ENERGY   46.76006663


 Eigenvalues of metric

         1 0.101E-04 0.123E-04 0.130E-04 0.570E-04 0.637E-04 0.729E-04 0.814E-04 0.831E-04


 OPERATOR DM      FOR CENTER  0  COORDINATES:    0.000000    0.000000    0.000000


 **********************************************************************************************************************************
 DATASETS  * FILE   NREC   LENGTH (MB)   RECORD NAMES
              1      18       40.76       500      610      700      900      950      970     1000      129      960     1100   
                                          VAR    BASINP    GEOM    SYMINP    ZMAT    AOBASIS   BASIS     P2S    ABASIS      S 
                                         1400     1410     1200     1210     1080     1600     1650     1700   
                                           T        V       H0       H01     AOSYM     SMH    MOLCAS    OPER   

 PROGRAMS   *        TOTAL       INT
 CPU TIMES  *         0.83      0.65
 REAL TIME  *         1.90 SEC
 DISK USED  *        41.29 MB (local),      165.18 MB (total)
 GA USED    *         0.00 MB       (max)       0.00 MB       (current)
 **********************************************************************************************************************************

 Density functional group PBE=PBEX+PBEC
 Functional: PBEX(Automatically generated (new) PBEX)                          Gradient terms: 1
 Functional: PBEC(Automatically generated (new) PBEC)                          Gradient terms: 1
 Use libxcgrid:  F
 Use grid at  1800.2

 Functional: PBEX                      Factor:  1.0000
 Functional: PBEC                      Factor:  1.0000

 Generated new metagrid on record  1800.2 with target accuracy 1.0D-08 and 55400 points in CPU time    0.2
 Computed new grid on record 1800.1 in CPU time    0.2
  439228 words reserved for DFT integration

 PROGRAM * RKS-SCF (Restricted closed shell Kohn-Sham)     Authors: W. Meyer, H.-J. Werner, P.J. Knowles, 1993

 NUMBER OF ELECTRONS:      12+   12-    SPACE SYMMETRY=1    SPIN SYMMETRY: Singlet 
 CONVERGENCE THRESHOLDS:    1.00E-04 (Density)    1.00E-08 (Energy)
 INTEGRAL THRESHOLDS:       1.00E-11 (Initial)    1.00E-11 (Final)
 MAX. NUMBER OF ITERATIONS:       60
 INTERPOLATION TYPE:            DIIS
 INTERPOLATION STEPS:              2 (START)      1 (STEP)
 LEVEL SHIFTS:                  0.00 (CLOSED)  0.00 (OPEN) 



 Use fine grid record 1800.2 for energy threshold  1.0D-08
 Orbital guess generated from atomic densities. Full valence occupancy:   17

 Molecular orbital dump at record        2101.2

 Initial occupancy:  12

 Direct Fock-matrix evaluation.        Authors: Roland Lindh & Martin Schuetz (1993/96)

 Integral Threshold:                  0.1D-10
 Threshold for writing integrals:     0.1D-06
 Prescreening on density matrix:        ON 
 Calculation will be performed fully direct        

 ITERATION   DDIFF            GRAD            ENERGY        2-EL.EN.            DIPOLE MOMENTS         DIIS   CPU(IT)  CPU(TOT)
    1      0.000D+00      0.000D+00      -189.52234465    284.155488    0.04036    1.02109   -0.05174    0    161.4    173.4     start
    2      0.000D+00      0.490D-02      -189.01978980    259.825934   -0.01759    0.60149    0.02304    1    154.5    327.8     diag
    3      0.583D-02      0.113D-01      -189.61714587    277.006064    0.02658    0.48679   -0.03353    2    154.1    481.9     diag
    4      0.432D-02      0.154D-02      -189.62331957    276.270264    0.02757    1.06093   -0.03502    3    146.1    628.0     diag
    5      0.104D-02      0.121D-02      -189.62982257    276.503070    0.02571    0.82301   -0.03267    4    143.6    771.6     diag
    6      0.446D-03      0.165D-03      -189.62996612    276.379923    0.02574    0.80872   -0.03265    5    138.8    910.4     diag
    7      0.952D-04      0.248D-04      -189.62996908    276.416007    0.02579    0.80645   -0.03273    6    128.4   1038.8     diag
    8      0.104D-04      0.248D-05      -189.62996910    276.416442    0.02581    0.80708   -0.03274    7    113.6   1152.4     diag
    9      0.831D-06      0.470D-06      -189.62996910    276.416885    0.02580    0.80672   -0.03274    0     99.3   1251.7     orth

 Final occupancy:  12

 !RKS STATE  1.1 Energy              -189.629969100369
 Nuclear energy                        46.76006663
 One-electron energy                 -351.60968971
 Two-electron energy                  138.20844229
 Density functional                   -22.98878832     PBEX=-22.21666318 PBEC= -0.77212514
 Virial quotient                       -1.00357179
 !RKS STATE  1.1 Dipole moment          0.02580266     0.80672465    -0.03273953
 Dipole moment /Debye                   0.06557953     2.05035524    -0.08321012

 Orbital energies:

         1.1          2.1          3.1          4.1          5.1          6.1          7.1          8.1          9.1         10.1
    -18.849391   -18.754850    -9.994907    -1.063000    -0.930628    -0.510091    -0.483193    -0.424254    -0.424214    -0.343445

        11.1         12.1         13.1         14.1
     -0.326066    -0.266102    -0.070347    -0.070306


 HOMO     12.1    -0.266102 =      -7.2410eV
 LUMO     13.1    -0.070347 =      -1.9142eV
 LUMO-HOMO         0.195754 =       5.3268eV


 **********************************************************************************************************************************
 DATASETS  * FILE   NREC   LENGTH (MB)   RECORD NAMES
              1      19       40.76       500      610      700      900      950      970     1000      129      960     1100   
                                          VAR    BASINP    GEOM    SYMINP    ZMAT    AOBASIS   BASIS     P2S    ABASIS      S 
                                         1400     1410     1200     1210     1080     1600     1650     1700     1800   
                                           T        V       H0       H01     AOSYM     SMH    MOLCAS    OPER     GRID   

              2       5        8.79       700     1000      520     1800     2101   
                                         GEOM     BASIS   MCVARS    GRID      RKS  

 PROGRAMS   *        TOTAL   RKS-SCF       INT
 CPU TIMES  *      1253.12   1252.29      0.65
 REAL TIME  *      1270.37 SEC
 DISK USED  *        68.46 MB (local),      273.83 MB (total)
 SF USED    *         3.52 MB
 GA USED    *         1.84 MB       (max)       1.84 MB       (current)
 **********************************************************************************************************************************
 SETTING EAB_PBE        =      -189.62996910  AU                              

 Dummy atoms: C1  O1


 Recomputing one-electron integrals since nuclear charges changed


 PROGRAM * SEWARD (Integral evaluation for generally contracted gaussian basis sets)     Author: Roland Lindh, 1990

 Geometry written to block  1 of record 700


 Point group  C1  



 ATOMIC COORDINATES

 NR  ATOM    CHARGE       X              Y              Z

   1  H1      1.00    0.056132179   11.492137860   -1.483457817
   2  H2      1.00    0.025798106   11.628001722    1.378445264
   3  C1      0.00    0.000000000    0.166779669    0.000000000
   4  O1      0.00    0.000000000    2.319083238    0.000000000
   5  O2      8.00    0.000000000   10.444905574    0.000000000

 Bond lengths in Bohr (Angstrom)

 1-5  1.816726004  2-5  1.816726007  3-4  2.152303570
     ( 0.961370000)     ( 0.961370001)     ( 1.138950000)

 Bond angles

  1-5-2  104.10700007

 NUCLEAR CHARGE:                   10
 NUMBER OF PRIMITIVE AOS:         813
 NUMBER OF SYMMETRY AOS:          598
 NUMBER OF CONTRACTIONS:          541   (  541A   )
 NUMBER OF CORE ORBITALS:           1   (    1A   )
 NUMBER OF VALENCE ORBITALS:        6   (    6A   )

 MOLECULE CHANGED: INITIALIZING OCCUPATION AND DUMP RECORDS


 NUCLEAR REPULSION ENERGY    9.15605698


 Eigenvalues of metric

         1 0.101E-04 0.123E-04 0.130E-04 0.570E-04 0.637E-04 0.729E-04 0.814E-04 0.831E-04


 OPERATOR DM      FOR CENTER  0  COORDINATES:    0.000000    0.000000    0.000000


 **********************************************************************************************************************************
 DATASETS  * FILE   NREC   LENGTH (MB)   RECORD NAMES
              1      19       40.76       500      610      700      900      950      970     1000      129      960     1100   
                                          VAR    BASINP    GEOM    SYMINP    ZMAT    AOBASIS   BASIS     P2S    ABASIS      S 
                                         1400     1410     1200     1210     1080     1600     1650     1700     1800   
                                           T        V       H0       H01     AOSYM     SMH    MOLCAS    OPER     GRID   

              2       5        8.79       700     1000      520     1800     2101   
                                         GEOM     BASIS   MCVARS    GRID      RKS  

 PROGRAMS   *        TOTAL       INT   RKS-SCF       INT
 CPU TIMES  *      1253.48      0.35   1252.29      0.65
 REAL TIME  *      1270.75 SEC
 DISK USED  *        68.46 MB (local),      273.83 MB (total)
 SF USED    *         3.52 MB
 GA USED    *         1.84 MB       (max)       1.84 MB       (current)
 **********************************************************************************************************************************

 Density functional group PBE=PBEX+PBEC
 Functional: PBEX(Automatically generated (new) PBEX)                          Gradient terms: 1
 Functional: PBEC(Automatically generated (new) PBEC)                          Gradient terms: 1
 Use libxcgrid:  F
 Use grid at  1800.2

 Functional: PBEX                      Factor:  1.0000
 Functional: PBEC                      Factor:  1.0000

 Generated new metagrid on record  1800.2 with target accuracy 1.0D-08 and 55400 points in CPU time    0.1
 Computed new grid on record 1800.1 in CPU time    0.2
  439228 words reserved for DFT integration

 PROGRAM * RKS-SCF (Restricted closed shell Kohn-Sham)     Authors: W. Meyer, H.-J. Werner, P.J. Knowles, 1993

 NUMBER OF ELECTRONS:       5+    5-    SPACE SYMMETRY=1    SPIN SYMMETRY: Singlet 
 CONVERGENCE THRESHOLDS:    1.00E-04 (Density)    1.00E-08 (Energy)
 INTEGRAL THRESHOLDS:       1.00E-11 (Initial)    1.00E-11 (Final)
 MAX. NUMBER OF ITERATIONS:       60
 INTERPOLATION TYPE:            DIIS
 INTERPOLATION STEPS:              2 (START)      1 (STEP)
 LEVEL SHIFTS:                  0.00 (CLOSED)  0.00 (OPEN) 



 Use fine grid record 1800.2 for energy threshold  1.0D-08
 Orbital guess generated from atomic densities. Full valence occupancy:    7

 Molecular orbital dump at record        2201.2

 Initial occupancy:   5

 Direct Fock-matrix evaluation.        Authors: Roland Lindh & Martin Schuetz (1993/96)

 Integral Threshold:                  0.1D-10
 Threshold for writing integrals:     0.1D-06
 Prescreening on density matrix:        ON 
 Calculation will be performed fully direct        

 ITERATION   DDIFF            GRAD            ENERGY        2-EL.EN.            DIPOLE MOMENTS         DIIS   CPU(IT)  CPU(TOT)
    1      0.000D+00      0.000D+00       -76.30160083     98.228072    0.04037    1.09888   -0.05174    0    153.0    166.2     start
    2      0.000D+00      0.671D-02       -75.91030845     81.743881   -0.01672   -0.45319    0.02127    1    149.9    316.2     diag
    3      0.523D-02      0.152D-01       -76.38773196     93.605767    0.02708    0.73706   -0.03470    2    149.3    465.5     diag
    4      0.368D-02      0.402D-03       -76.38815641     93.200457    0.02597    0.70699   -0.03329    3    136.2    601.7     diag
    5      0.168D-03      0.881D-04       -76.38816999     93.251468    0.02592    0.70551   -0.03322    4    120.9    722.6     diag
    6      0.240D-04      0.197D-04       -76.38817077     93.261999    0.02600    0.70785   -0.03333    5    112.1    834.7     diag
    7      0.488D-05      0.921D-06       -76.38817077     93.261755    0.02600    0.70771   -0.03333    6     84.2    918.9     diag
    8      0.233D-06      0.610D-07       -76.38817077     93.261842    0.02600    0.70773   -0.03333    0     45.2    964.2     orth

 Final occupancy:   5

 !RKS STATE  1.1 Energy               -76.388170770181
 Nuclear energy                         9.15605698
 One-electron energy                 -122.93681819
 Two-electron energy                   46.63092118
 Density functional                    -9.23833074     PBEX=-8.91399857 PBEC=-0.32433217
 Virial quotient                       -1.00338019
 !RKS STATE  1.1 Dipole moment          0.02600020     0.70772708    -0.03332587
 Dipole moment /Debye                   0.06608159     1.79874499    -0.08470036

 Orbital energies:

         1.1          2.1          3.1          4.1          5.1          6.1          7.1
    -18.755008    -0.930817    -0.483376    -0.343716    -0.266300    -0.034689     0.014424


 HOMO      5.1    -0.266300 =      -7.2464eV
 LUMO      6.1    -0.034689 =      -0.9439eV
 LUMO-HOMO         0.231611 =       6.3025eV


 **********************************************************************************************************************************
 DATASETS  * FILE   NREC   LENGTH (MB)   RECORD NAMES
              1      19       40.76       500      610      700      900      950      970     1000      129      960     1100   
                                          VAR    BASINP    GEOM    SYMINP    ZMAT    AOBASIS   BASIS     P2S    ABASIS      S 
                                         1400     1410     1200     1210     1080     1600     1650     1700     1800   
                                           T        V       H0       H01     AOSYM     SMH    MOLCAS    OPER     GRID   

              2       6       23.02       700     1000      520     1800     2101     2201   
                                         GEOM     BASIS   MCVARS    GRID      RKS      RKS  

 PROGRAMS   *        TOTAL   RKS-SCF       INT   RKS-SCF       INT
 CPU TIMES  *      2218.23    964.75      0.35   1252.29      0.65
 REAL TIME  *      2246.01 SEC
 DISK USED  *        81.51 MB (local),      326.05 MB (total)
 SF USED    *         3.52 MB
 GA USED    *         1.84 MB       (max)       1.84 MB       (current)
 **********************************************************************************************************************************
 SETTING EA_PBE         =       -76.38817077  AU                              

 Dummy atoms: H1  H2  O2


 Recomputing one-electron integrals since nuclear charges changed


 PROGRAM * SEWARD (Integral evaluation for generally contracted gaussian basis sets)     Author: Roland Lindh, 1990

 Geometry written to block  1 of record 700


 Point group  C1  



 ATOMIC COORDINATES

 NR  ATOM    CHARGE       X              Y              Z

   1  H1      0.00    0.056132179   11.492137860   -1.483457817
   2  H2      0.00    0.025798106   11.628001722    1.378445264
   3  C1      6.00    0.000000000    0.166779669    0.000000000
   4  O1      8.00    0.000000000    2.319083238    0.000000000
   5  O2      0.00    0.000000000   10.444905574    0.000000000

 Bond lengths in Bohr (Angstrom)

 1-5  1.816726004  2-5  1.816726007  3-4  2.152303570
     ( 0.961370000)     ( 0.961370001)     ( 1.138950000)

 Bond angles

  1-5-2  104.10700007

 NUCLEAR CHARGE:                   14
 NUMBER OF PRIMITIVE AOS:         813
 NUMBER OF SYMMETRY AOS:          598
 NUMBER OF CONTRACTIONS:          541   (  541A   )
 NUMBER OF CORE ORBITALS:           2   (    2A   )
 NUMBER OF VALENCE ORBITALS:        8   (    8A   )

 MOLECULE CHANGED: INITIALIZING OCCUPATION AND DUMP RECORDS


 NUCLEAR REPULSION ENERGY   22.30168675


 Eigenvalues of metric

         1 0.101E-04 0.123E-04 0.130E-04 0.570E-04 0.637E-04 0.729E-04 0.814E-04 0.831E-04


 OPERATOR DM      FOR CENTER  0  COORDINATES:    0.000000    0.000000    0.000000


 **********************************************************************************************************************************
 DATASETS  * FILE   NREC   LENGTH (MB)   RECORD NAMES
              1      19       40.76       500      610      700      900      950      970     1000      129      960     1100   
                                          VAR    BASINP    GEOM    SYMINP    ZMAT    AOBASIS   BASIS     P2S    ABASIS      S 
                                         1400     1410     1200     1210     1080     1600     1650     1700     1800   
                                           T        V       H0       H01     AOSYM     SMH    MOLCAS    OPER     GRID   

              2       6       23.02       700     1000      520     1800     2101     2201   
                                         GEOM     BASIS   MCVARS    GRID      RKS      RKS  

 PROGRAMS   *        TOTAL       INT   RKS-SCF       INT   RKS-SCF       INT
 CPU TIMES  *      2218.57      0.34    964.75      0.35   1252.29      0.65
 REAL TIME  *      2246.40 SEC
 DISK USED  *        81.51 MB (local),      326.05 MB (total)
 SF USED    *         3.52 MB
 GA USED    *         1.84 MB       (max)       1.84 MB       (current)
 **********************************************************************************************************************************

 Density functional group PBE=PBEX+PBEC
 Functional: PBEX(Automatically generated (new) PBEX)                          Gradient terms: 1
 Functional: PBEC(Automatically generated (new) PBEC)                          Gradient terms: 1
 Use libxcgrid:  F
 Use grid at  1800.2

 Functional: PBEX                      Factor:  1.0000
 Functional: PBEC                      Factor:  1.0000

 Generated new metagrid on record  1800.2 with target accuracy 1.0D-08 and 55400 points in CPU time    0.2
 Computed new grid on record 1800.1 in CPU time    0.2
  439228 words reserved for DFT integration

 PROGRAM * RKS-SCF (Restricted closed shell Kohn-Sham)     Authors: W. Meyer, H.-J. Werner, P.J. Knowles, 1993

 NUMBER OF ELECTRONS:       7+    7-    SPACE SYMMETRY=1    SPIN SYMMETRY: Singlet 
 CONVERGENCE THRESHOLDS:    1.00E-04 (Density)    1.00E-08 (Energy)
 INTEGRAL THRESHOLDS:       1.00E-11 (Initial)    1.00E-11 (Final)
 MAX. NUMBER OF ITERATIONS:       60
 INTERPOLATION TYPE:            DIIS
 INTERPOLATION STEPS:              2 (START)      1 (STEP)
 LEVEL SHIFTS:                  0.00 (CLOSED)  0.00 (OPEN) 



 Use fine grid record 1800.2 for energy threshold  1.0D-08
 Orbital guess generated from atomic densities. Full valence occupancy:   10

 Molecular orbital dump at record        2301.2

 Initial occupancy:   7

 Direct Fock-matrix evaluation.        Authors: Roland Lindh & Martin Schuetz (1993/96)

 Integral Threshold:                  0.1D-10
 Threshold for writing integrals:     0.1D-06
 Prescreening on density matrix:        ON 
 Calculation will be performed fully direct        

 ITERATION   DDIFF            GRAD            ENERGY        2-EL.EN.            DIPOLE MOMENTS         DIIS   CPU(IT)  CPU(TOT)
    1      0.000D+00      0.000D+00      -113.22138087    154.899857   -0.00000   -0.07794    0.00000    0    156.2    168.5     start
    2      0.000D+00      0.288D-02      -113.12803080    148.013465    0.00000    0.96767   -0.00000    1    145.2    313.7     diag
    3      0.246D-02      0.660D-02      -113.23297910    152.413172   -0.00000   -0.21401    0.00000    2    141.5    455.2     diag
    4      0.212D-02      0.165D-02      -113.24184716    152.381376   -0.00000    0.08479    0.00000    3    132.7    587.9     diag
    5      0.608D-03      0.110D-03      -113.24188491    152.306838   -0.00000    0.07922    0.00000    4    119.4    707.3     diag
    6      0.434D-04      0.274D-04      -113.24188723    152.316172   -0.00000    0.07473    0.00000    5     98.1    805.4     diag
    7      0.760D-05      0.284D-05      -113.24188725    152.317870   -0.00000    0.07440    0.00000    6     79.3    884.8     diag
    8      0.741D-06      0.204D-06      -113.24188725    152.318030   -0.00000    0.07430    0.00000    0     58.3    943.0     orth

 Final occupancy:   7

 !RKS STATE  1.1 Energy              -113.241887250952
 Nuclear energy                        22.30168675
 One-electron energy                 -197.95140975
 Two-electron energy                   76.15901491
 Density functional                   -13.75117916     PBEX=-13.30338662 PBEC= -0.44779254
 Virial quotient                       -1.00368596
 !RKS STATE  1.1 Dipole moment         -0.00000003     0.07429561     0.00000009
 Dipole moment /Debye                  -0.00000007     0.18882823     0.00000022

 Orbital energies:

         1.1          2.1          3.1          4.1          5.1          6.1          7.1          8.1          9.1
    -18.857459   -10.002951    -1.071256    -0.519403    -0.432474    -0.432474    -0.333164    -0.077685    -0.077685


 HOMO      7.1    -0.333164 =      -9.0659eV
 LUMO      8.1    -0.077685 =      -2.1139eV
 LUMO-HOMO         0.255479 =       6.9519eV


 **********************************************************************************************************************************
 DATASETS  * FILE   NREC   LENGTH (MB)   RECORD NAMES
              1      19       40.76       500      610      700      900      950      970     1000      129      960     1100   
                                          VAR    BASINP    GEOM    SYMINP    ZMAT    AOBASIS   BASIS     P2S    ABASIS      S 
                                         1400     1410     1200     1210     1080     1600     1650     1700     1800   
                                           T        V       H0       H01     AOSYM     SMH    MOLCAS    OPER     GRID   

              2       7       37.25       700     1000      520     1800     2101     2201     2301   
                                         GEOM     BASIS   MCVARS    GRID      RKS      RKS      RKS  

 PROGRAMS   *        TOTAL   RKS-SCF       INT   RKS-SCF       INT   RKS-SCF       INT
 CPU TIMES  *      3162.21    943.64      0.34    964.75      0.35   1252.29      0.65
 REAL TIME  *      3200.07 SEC
 DISK USED  *        95.74 MB (local),      382.97 MB (total)
 SF USED    *         3.52 MB
 GA USED    *         1.84 MB       (max)       1.84 MB       (current)
 **********************************************************************************************************************************
 SETTING EB_PBE         =      -113.24188725  AU                              
 SETTING E_AB_INT       =     8.89207646D-05  AU                              

 *** results in hartree
 E_AB_INT         =         0.00008892 AU
 Molecular orbitals read from record     2301.2  Type=RKS/CANONICAL (state 1.1)
 Occupation numbers read from record     2301.2  Type=RKS/RHF (state 1.1)
 Orbital energies read from record       2301.2  Type=RKS/CANONICAL (state 1.1)
 Redundancy group numbers read from rec  2301.2  Type=RKS/RHF (state 1.1)

 RPBE/aug-cc-pV5Z energy=   -113.241887250952

         RKS-SCF         RKS-SCF         RKS-SCF
   -113.24188725    -76.38817077   -189.62996910
 **********************************************************************************************************************************
 Molpro calculation terminated
