 vasp.5.4.1 24Jun15 (build Jan 02 2020 16:21:29) gamma-only                     
  
 executed on           IFC15_impi date 2020.04.10  18:50:27
 running on    8 total cores
 distrk:  each k-point on    8 cores,    1 groups
 distr:  one band on NCORES_PER_BAND=   8 cores,    1 groups


--------------------------------------------------------------------------------------------------------


 INCAR:
 POTCAR:    PAW_PBE N_GW 10Apr2007                
 POTCAR:    PAW_PBE O_GW 28Sep2005                
 POTCAR:    PAW_PBE H_GW 21Apr2008                
 POTCAR:    PAW_PBE C_GW 28Sep2005                

 ----------------------------------------------------------------------------- 
|                                                                             |
|           W    W    AA    RRRRR   N    N  II  N    N   GGGG   !!!           |
|           W    W   A  A   R    R  NN   N  II  NN   N  G    G  !!!           |
|           W    W  A    A  R    R  N N  N  II  N N  N  G       !!!           |
|           W WW W  AAAAAA  RRRRR   N  N N  II  N  N N  G  GGG   !            |
|           WW  WW  A    A  R   R   N   NN  II  N   NN  G    G                |
|           W    W  A    A  R    R  N    N  II  N    N   GGGG   !!!           |
|                                                                             |
|      For optimal performance we recommend to set                            |
|        NCORE= 4 - approx SQRT( number of cores)                             |
|      NCORE specifies how many cores store one orbital (NPAR=cpu/NCORE).     |
|      This setting can  greatly improve the performance of VASP for DFT.     |
|      The default, NPAR=number of cores might be grossly inefficient         |
|      on modern multi-core architectures or massively parallel machines.     |
|      Do your own testing !!!!                                               |
|      Unfortunately you need to use the default for GW and RPA calculations. |
|      (for HF NCORE is supported but not extensively tested yet)             |
|                                                                             |
 ----------------------------------------------------------------------------- 

 POTCAR:    PAW_PBE N_GW 10Apr2007                
   VRHFIN =N: s2p3                                                              
   LEXCH  = PE                                                                  
   EATOM  =   264.5486 eV,   19.4438 Ry                                         
                                                                                
   TITEL  = PAW_PBE N_GW 10Apr2007                                              
   LULTRA =        F    use ultrasoft PP ?                                      
   IUNSCR =        0    unscreen: 0-lin 1-nonlin 2-no                           
   RPACOR =    0.000    partial core radius                                     
   POMASS =   14.001; ZVAL   =    5.000    mass and valenz                      
   RCORE  =    1.500    outmost cutoff radius                                   
   RWIGS  =    1.400; RWIGS  =    0.741    wigner-seitz radius (au A)           
   ENMAX  =  420.902; ENMIN  =  315.677 eV                                      
   ICORE  =        2    local potential                                         
   LCOR   =        T    correct aug charges                                     
   LPAW   =        T    paw PP                                                  
   EAUG   =  904.640                                                            
   DEXC   =    0.000                                                            
   RMAX   =    1.529    core radius for proj-oper                               
   RAUG   =    1.300    factor for augmentation sphere                          
   RDEP   =    1.514    radius for radial grids                                 
   RDEPT  =    1.100    core radius for aug-charge                              
                                                                                
   Atomic configuration                                                         
    4 entries                                                                   
     n  l   j            E        occ.                                          
     1  0  0.50      -384.7179   2.0000                                         
     2  0  0.50       -18.5828   2.0000                                         
     2  1  0.50        -7.0898   3.0000                                         
     3  2  1.50        -8.1635   0.0000                                         
   Description                                                                  
     l       E           TYP  RCUT    TYP  RCUT                                 
     0    -18.5828120     23  1.300                                             
     0     81.6349560     23  1.300                                             
     1     -7.0897854     23  1.500                                             
     1     81.6349560     23  1.500                                             
     2     -8.1634956      7  1.500                                             
  local pseudopotential read in
  kinetic energy density of atom read in
  atomic valenz-charges read in
  non local Contribution for L=           0  read in
    real space projection operators read in
  non local Contribution for L=           0  read in
    real space projection operators read in
  non local Contribution for L=           1  read in
    real space projection operators read in
  non local Contribution for L=           1  read in
    real space projection operators read in
    PAW grid and wavefunctions read in
 
   number of l-projection  operators is LMAX  =           4
   number of lm-projection operators is LMMAX =           8
 
 POTCAR:    PAW_PBE O_GW 28Sep2005                
   VRHFIN =O: s2p4                                                              
   LEXCH  = PE                                                                  
   EATOM  =   432.3788 eV,   31.7789 Ry                                         
                                                                                
   TITEL  = PAW_PBE O_GW 28Sep2005                                              
   LULTRA =        F    use ultrasoft PP ?                                      
   IUNSCR =        0    unscreen: 0-lin 1-nonlin 2-no                           
   RPACOR =    0.000    partial core radius                                     
   POMASS =   16.000; ZVAL   =    6.000    mass and valenz                      
   RCORE  =    1.520    outmost cutoff radius                                   
   RWIGS  =    1.550; RWIGS  =    0.820    wigner-seitz radius (au A)           
   ENMAX  =  414.635; ENMIN  =  310.976 eV                                      
   ICORE  =        2    local potential                                         
   LCOR   =        T    correct aug charges                                     
   LPAW   =        T    paw PP                                                  
   EAUG   =  605.392                                                            
   DEXC   =    0.000                                                            
   RMAX   =    1.553    core radius for proj-oper                               
   RAUG   =    1.300    factor for augmentation sphere                          
   RDEP   =    1.550    radius for radial grids                                 
   RDEPT  =    1.329    core radius for aug-charge                              
                                                                                
   Atomic configuration                                                         
    4 entries                                                                   
     n  l   j            E        occ.                                          
     1  0  0.50      -514.6923   2.0000                                         
     2  0  0.50       -23.9615   2.0000                                         
     2  1  0.50        -9.0305   4.0000                                         
     3  2  1.50        -9.5241   0.0000                                         
   Description                                                                  
     l       E           TYP  RCUT    TYP  RCUT                                 
     0    -23.9615316     23  1.200                                             
     0     81.6349560     23  1.200                                             
     1     -9.0304908     23  1.520                                             
     1     81.6349560     23  1.520                                             
     2     -9.5240782      7  1.500                                             
  local pseudopotential read in
  kinetic energy density of atom read in
  atomic valenz-charges read in
  non local Contribution for L=           0  read in
    real space projection operators read in
  non local Contribution for L=           0  read in
    real space projection operators read in
  non local Contribution for L=           1  read in
    real space projection operators read in
  non local Contribution for L=           1  read in
    real space projection operators read in
    PAW grid and wavefunctions read in
 
   number of l-projection  operators is LMAX  =           4
   number of lm-projection operators is LMMAX =           8
 
 POTCAR:    PAW_PBE H_GW 21Apr2008                
   VRHFIN =H: ultrasoft test                                                    
   LEXCH  = PE                                                                  
   EATOM  =    12.4884 eV,    0.9179 Ry                                         
                                                                                
   TITEL  = PAW_PBE H_GW 21Apr2008                                              
   LULTRA =        F    use ultrasoft PP ?                                      
   IUNSCR =        0    unscreen: 0-lin 1-nonlin 2-no                           
   RPACOR =    0.000    partial core radius                                     
   POMASS =    1.000; ZVAL   =    1.000    mass and valenz                      
   RCORE  =    1.100    outmost cutoff radius                                   
   RWIGS  =    1.100; RWIGS  =    0.582    wigner-seitz radius (au A)           
   ENMAX  =  300.000; ENMIN  =  250.000 eV                                      
   RCLOC  =    0.701    cutoff for local pot                                    
   LCOR   =        T    correct aug charges                                     
   LPAW   =        T    paw PP                                                  
   EAUG   =  500.000                                                            
   RMAX   =    1.123    core radius for proj-oper                               
   RAUG   =    1.200    factor for augmentation sphere                          
   RDEP   =    1.112    radius for radial grids                                 
   RDEPT  =    1.100    core radius for aug-charge                              
                                                                                
   Atomic configuration                                                         
    3 entries                                                                   
     n  l   j            E        occ.                                          
     1  0  0.50        -6.4927   1.0000                                         
     2  1  0.50        -3.4015   0.0000                                         
     3  2  1.50        13.6058   0.0000                                         
   Description                                                                  
     l       E           TYP  RCUT    TYP  RCUT                                 
     0     -6.4927495     23  0.950                                             
     0      6.8029130     23  0.950                                             
     1     -4.0817478     23  1.100                                             
     1    108.8466080     23  1.100                                             
     2     81.6349560     23  1.100                                             
  local pseudopotential read in
  kinetic energy density of atom read in
  atomic valenz-charges read in
  non local Contribution for L=           0  read in
    real space projection operators read in
  non local Contribution for L=           0  read in
    real space projection operators read in
  non local Contribution for L=           1  read in
    real space projection operators read in
  non local Contribution for L=           1  read in
    real space projection operators read in
  non local Contribution for L=           2  read in
    real space projection operators read in
    PAW grid and wavefunctions read in
 
   number of l-projection  operators is LMAX  =           5
   number of lm-projection operators is LMMAX =          13
 
 POTCAR:    PAW_PBE C_GW 28Sep2005                
   VRHFIN =C: s2p2                                                              
   LEXCH  = PE                                                                  
   EATOM  =   147.1560 eV,   10.8157 Ry                                         
                                                                                
   TITEL  = PAW_PBE C_GW 28Sep2005                                              
   LULTRA =        F    use ultrasoft PP ?                                      
   IUNSCR =        0    unscreen: 0-lin 1-nonlin 2-no                           
   RPACOR =    0.000    partial core radius                                     
   POMASS =   12.011; ZVAL   =    4.000    mass and valenz                      
   RCORE  =    1.500    outmost cutoff radius                                   
   RWIGS  =    1.630; RWIGS  =    0.863    wigner-seitz radius (au A)           
   ENMAX  =  413.992; ENMIN  =  310.494 eV                                      
   ICORE  =        2    local potential                                         
   LCOR   =        T    correct aug charges                                     
   LPAW   =        T    paw PP                                                  
   EAUG   =  644.873                                                            
   DEXC   =    0.000                                                            
   RMAX   =    1.529    core radius for proj-oper                               
   RAUG   =    1.300    factor for augmentation sphere                          
   RDEP   =    1.501    radius for radial grids                                 
   RDEPT  =    1.300    core radius for aug-charge                              
                                                                                
   Atomic configuration                                                         
    4 entries                                                                   
     n  l   j            E        occ.                                          
     1  0  0.50      -273.3789   2.0000                                         
     2  0  0.50       -13.7508   2.0000                                         
     2  1  0.50        -5.2854   2.0000                                         
     3  2  1.50        -5.4423   0.0000                                         
   Description                                                                  
     l       E           TYP  RCUT    TYP  RCUT                                 
     0    -13.7508457     23  1.200                                             
     0     95.2407820     23  1.200                                             
     1     -5.2854382     23  1.500                                             
     1    108.8466080     23  1.500                                             
     2     -5.4423304      7  1.500                                             
  local pseudopotential read in
  kinetic energy density of atom read in
  atomic valenz-charges read in
  non local Contribution for L=           0  read in
    real space projection operators read in
  non local Contribution for L=           0  read in
    real space projection operators read in
  non local Contribution for L=           1  read in
    real space projection operators read in
  non local Contribution for L=           1  read in
    real space projection operators read in
    PAW grid and wavefunctions read in
 
   number of l-projection  operators is LMAX  =           4
   number of lm-projection operators is LMMAX =           8
 
  PAW_PBE N_GW 10Apr2007                :
 energy of atom  1       EATOM= -264.5486
 kinetic energy error for atom=    0.0003 (will be added to EATOM!!)
  PAW_PBE O_GW 28Sep2005                :
 energy of atom  2       EATOM= -432.3788
 kinetic energy error for atom=    0.0005 (will be added to EATOM!!)
  PAW_PBE H_GW 21Apr2008                :
 energy of atom  3       EATOM=  -12.4884
 kinetic energy error for atom=    0.0000 (will be added to EATOM!!)
  PAW_PBE C_GW 28Sep2005                :
 energy of atom  4       EATOM= -147.1560
 kinetic energy error for atom=    0.0002 (will be added to EATOM!!)
 
 
 POSCAR: N O H C                                 
  positions in cartesian coordinates
  No initial velocities read in
 exchange correlation table for  LEXCH =        8
   RHO(1)=    0.500       N(1)  =     2000
   RHO(2)=  100.500       N(2)  =     4000
 


--------------------------------------------------------------------------------------------------------


 ion  position               nearest neighbor table
   1  0.979  0.001  0.000-   5 1.03  12 1.38   9 1.38
   2  0.921  0.032  1.000-   8 1.01  11 1.36  12 1.39
   3  0.983  0.936  0.000-   9 1.23
   4  0.976  0.066  1.000-  12 1.21
   5  0.009  0.002  0.000-   1 1.03
   6  0.907  0.937  0.000-  10 1.08
   7  0.871  0.999  1.000-  11 1.08
   8  0.906  0.056  1.000-   2 1.01
   9  0.963  0.965  0.000-   3 1.23   1 1.38  10 1.45
  10  0.922  0.964  0.000-   6 1.08  11 1.35   9 1.45
  11  0.902  0.997  1.000-   7 1.08  10 1.35   2 1.36
  12  0.960  0.035  1.000-   4 1.21   1 1.38   2 1.39
 
  LATTYP: Found a simple cubic cell.
 ALAT       =    35.0000000000
  
  Lattice vectors:
  
 A1 = (  35.0000000000,   0.0000000000,   0.0000000000)
 A2 = (   0.0000000000,  35.0000000000,   0.0000000000)
 A3 = (   0.0000000000,   0.0000000000,  35.0000000000)


Analysis of symmetry for initial positions (statically):
=====================================================================
 Subroutine PRICEL returns:
 Original cell was already a primitive cell.
 

 Routine SETGRP: Setting up the symmetry group for a 
 simple cubic supercell.


 Subroutine GETGRP returns: Found  1 space group operations
 (whereof  1 operations were pure point group operations)
 out of a pool of 48 trial point group operations.


The static configuration has the point symmetry C_1 .


Analysis of symmetry for dynamics (positions and initial velocities):
=====================================================================
 Subroutine PRICEL returns:
 Original cell was already a primitive cell.
 

 Routine SETGRP: Setting up the symmetry group for a 
 simple cubic supercell.


 Subroutine GETGRP returns: Found  1 space group operations
 (whereof  1 operations were pure point group operations)
 out of a pool of 48 trial point group operations.


The dynamic configuration has the point symmetry C_1 .
 
 
 KPOINTS: automatic mesh                          

Automatic generation of k-mesh.
Space group operators:
 irot       det(A)        alpha          n_x          n_y          n_z        tau_x        tau_y        tau_z
    1     1.000000     0.000000     1.000000     0.000000     0.000000     0.000000     0.000000     0.000000
 
 Subroutine IBZKPT returns following result:
 ===========================================
 
 Found      1 irreducible k-points:
 
 Following reciprocal coordinates:
            Coordinates               Weight
  0.000000  0.000000  0.000000      1.000000
 
 Following cartesian coordinates:
            Coordinates               Weight
  0.000000  0.000000  0.000000      1.000000
 


--------------------------------------------------------------------------------------------------------




 Dimension of arrays:
   k-points           NKPTS =      1   k-points in BZ     NKDIM =      1   number of bands    NBANDS=     28
   number of dos      NEDOS =    301   number of ions     NIONS =     12
   non local maximal  LDIM  =      5   non local SUM 2l+1 LMDIM =     13
   total plane-waves  NPLWV = ******
   max r-space proj   IRMAX =      1   max aug-charges    IRDMAX=  33660
   dimension x,y,z NGX =   480 NGY =  480 NGZ =  480
   dimension x,y,z NGXF=   960 NGYF=  960 NGZF=  960
   support grid    NGXF=   960 NGYF=  960 NGZF=  960
   ions per type =               2   2   4   4
 NGX,Y,Z   is equivalent  to a cutoff of  22.80, 22.80, 22.80 a.u.
 NGXF,Y,Z  is equivalent  to a cutoff of  45.60, 45.60, 45.60 a.u.


 I would recommend the setting:
   dimension x,y,z NGX =   457 NGY =  457 NGZ =  457
 SYSTEM =  C                                       
 POSCAR =  N O H C                                 

 Startparameter for this run:
   NWRITE =      2    write-flag & timer
   PREC   = acc       normal or accurate (medium, high low for compatibility)
   ISTART =      0    job   : 0-new  1-cont  2-samecut
   ICHARG =      2    charge: 1-file 2-atom 10-const
   ISPIN  =      1    spin polarized calculation?
   LNONCOLLINEAR =      F non collinear calculations
   LSORBIT =      F    spin-orbit coupling
   INIWAV =      1    electr: 0-lowe 1-rand  2-diag
   LASPH  =      T    aspherical Exc in radial PAW
   METAGGA=      F    non-selfconsistent MetaGGA calc.

 Electronic Relaxation 1
   ENCUT  = 1600.0 eV 117.60 Ry   10.84 a.u. 114.15114.15114.15*2*pi/ulx,y,z
   ENINI  = 1600.0     initial cutoff
   ENAUG  =  904.6 eV  augmentation charge cutoff
   NELM   =     60;   NELMIN=  2; NELMDL= -5     # of ELM steps 
   EDIFF  = 0.1E-06   stopping-criterion for ELM
   LREAL  =      F    real-space projection
   NLSPLINE    = F    spline interpolate recip. space projectors
   LCOMPAT=      F    compatible to vasp.4.4
   GGA_COMPAT  = T    GGA compatible to vasp.4.4-vasp.4.6
   LMAXPAW     = -100 max onsite density
   LMAXMIX     =    2 max onsite mixed and CHGCAR
   VOSKOWN=      0    Vosko Wilk Nusair interpolation
   ROPT   =    0.00000   0.00000   0.00000   0.00000
 Ionic relaxation
   EDIFFG = 0.1E-05   stopping-criterion for IOM
   NSW    =      0    number of steps for IOM
   NBLOCK =      1;   KBLOCK =      1    inner block; outer block 
   IBRION =     -1    ionic relax: 0-MD 1-quasi-New 2-CG
   NFREE  =      0    steps in history (QN), initial steepest desc. (CG)
   ISIF   =      2    stress and relaxation
   IWAVPR =     10    prediction:  0-non 1-charg 2-wave 3-comb
   ISYM   =      2    0-nonsym 1-usesym 2-fastsym
   LCORR  =      T    Harris-Foulkes like correction to forces

   POTIM  = 0.5000    time-step for ionic-motion
   TEIN   =    0.0    initial temperature
   TEBEG  =    0.0;   TEEND  =   0.0 temperature during run
   SMASS  =  -3.00    Nose mass-parameter (am)
   estimated Nose-frequenzy (Omega)   =  0.10E-29 period in steps =****** mass=  -0.280E-25a.u.
   SCALEE = 1.0000    scale energy and forces
   NPACO  =    256;   APACO  = 16.0  distance and # of slots for P.C.
   PSTRESS=    0.0 pullay stress

  Mass of Ions in am
   POMASS =  14.00 16.00  1.00 12.01
  Ionic Valenz
   ZVAL   =   5.00  6.00  1.00  4.00
  Atomic Wigner-Seitz radii
   RWIGS  =  -1.00 -1.00 -1.00 -1.00
  virtual crystal weights 
   VCA    =   1.00  1.00  1.00  1.00
   NELECT =      42.0000    total number of electrons
   NUPDOWN=      -1.0000    fix difference up-down

 DOS related values:
   EMIN   =  10.00;   EMAX   =-10.00  energy-range for DOS
   EFERMI =   0.00
   ISMEAR =     0;   SIGMA  =   0.01  broadening in eV -4-tet -1-fermi 0-gaus

 Electronic relaxation 2 (details)
   IALGO  =     38    algorithm
   LDIAG  =      T    sub-space diagonalisation (order eigenvalues)
   LSUBROT=      F    optimize rotation matrix (better conditioning)
   TURBO    =      0    0=normal 1=particle mesh
   IRESTART =      0    0=no restart 2=restart with 2 vectors
   NREBOOT  =      0    no. of reboots
   NMIN     =      0    reboot dimension
   EREF     =   0.00    reference energy to select bands
   IMIX   =      4    mixing-type and parameters
     AMIX     =   0.40;   BMIX     =  1.00
     AMIX_MAG =   1.60;   BMIX_MAG =  1.00
     AMIN     =   0.10
     WC   =   100.;   INIMIX=   1;  MIXPRE=   1;  MAXMIX= -45

 Intra band minimization:
   WEIMIN = 0.0000     energy-eigenvalue tresh-hold
   EBREAK =  0.89E-09  absolut break condition
   DEPER  =   0.30     relativ break condition  

   TIME   =   0.40     timestep for ELM

  volume/ion in A,a.u.               =    3572.92     24111.23
  Fermi-wavevector in a.u.,A,eV,Ry     =   0.162589  0.307248  0.359670  0.026435
  Thomas-Fermi vector in A             =   0.859803
 
 Write flags
   LWAVE  =      T    write WAVECAR
   LCHARG =      T    write CHGCAR
   LVTOT  =      F    write LOCPOT, total local potential
   LVHAR  =      F    write LOCPOT, Hartree potential only
   LELF   =      F    write electronic localiz. function (ELF)
   LORBIT =      0    0 simple, 1 ext, 2 COOP (PROOUT)


 Dipole corrections
   LMONO  =      F    monopole corrections only (constant potential shift)
   LDIPOL =      F    correct potential (dipole corrections)
   IDIPOL =      0    1-x, 2-y, 3-z, 4-all directions 
   EPSILON=  1.0000000 bulk dielectric constant

 Exchange correlation treatment:
   GGA     =    --    GGA type
   LEXCH   =     8    internal setting for exchange type
   VOSKOWN=      0    Vosko Wilk Nusair interpolation
   LHFCALC =     F    Hartree Fock is set to
   LHFONE  =     F    Hartree Fock one center treatment
   AEXX    =    0.0000 exact exchange contribution

 Linear response parameters
   LEPSILON=     F    determine dielectric tensor
   LRPA    =     F    only Hartree local field effects (RPA)
   LNABLA  =     F    use nabla operator in PAW spheres
   LVEL    =     F    velocity operator in full k-point grid
   LINTERFAST=   F  fast interpolation
   KINTER  =     0    interpolate to denser k-point grid
   CSHIFT  =0.1000    complex shift for real part using Kramers Kronig
   OMEGAMAX=  -1.0    maximum frequency
   DEG_THRESHOLD= 0.2000000E-02 threshold for treating states as degnerate
   RTIME   =    0.100 relaxation time in fs

 Orbital magnetization related:
   ORBITALMAG=     F  switch on orbital magnetization
   LCHIMAG   =     F  perturbation theory with respect to B field
   DQ        =  0.001000  dq finite difference perturbation B field



--------------------------------------------------------------------------------------------------------


 Static calculation
 charge density and potential will be updated during run
 non-spin polarized calculation
 Variant of blocked Davidson
 Davidson routine will perform the subspace rotation
 perform sub-space diagonalisation
    after iterative eigenvector-optimisation
 modified Broyden-mixing scheme, WC =      100.0
 initial mixing is a Kerker type mixing with AMIX =  0.4000 and BMIX =      1.0000
 Hartree-type preconditioning will be used
 using additional bands            7
 reciprocal scheme for non local part
 calculate Harris-corrections to forces 
   (improved forces if not selfconsistent)
 use gradient corrections 
 use of overlap-Matrix (Vanderbilt PP)
 Gauss-broadening in eV      SIGMA  =   0.01


--------------------------------------------------------------------------------------------------------


  energy-cutoff  :     1600.00
  volume of cell :    42875.00
      direct lattice vectors                 reciprocal lattice vectors
    35.000000000  0.000000000  0.000000000     0.028571429  0.000000000  0.000000000
     0.000000000 35.000000000  0.000000000     0.000000000  0.028571429  0.000000000
     0.000000000  0.000000000 35.000000000     0.000000000  0.000000000  0.028571429

  length of vectors
    35.000000000 35.000000000 35.000000000     0.028571429  0.028571429  0.028571429


 
 k-points in units of 2pi/SCALE and weight: automatic mesh                          
   0.00000000  0.00000000  0.00000000       1.000
 
 k-points in reciprocal lattice and weights: automatic mesh                          
   0.00000000  0.00000000  0.00000000       1.000
 
 position of ions in fractional coordinates (direct lattice) 
   0.97914288  0.00065050  0.00002613
   0.92071895  0.03158311  0.99995948
   0.98302575  0.93561379  0.00007525
   0.97600447  0.06620101  0.99997139
   0.00852636  0.00211441  0.00004637
   0.90715456  0.93680471  0.00002380
   0.87140294  0.99859383  0.99995013
   0.90617606  0.05639650  0.99992898
   0.96294787  0.96455923  0.00004292
   0.92161079  0.96393338  0.00001370
   0.90222800  0.99725974  0.99997364
   0.96024347  0.03534342  0.99998499
 
 position of ions in cartesian coordinates  (Angst):
  34.27000087  0.02276763  0.00091465
  32.22516316  1.10540895 34.99858193
  34.40590114 32.74648249  0.00263371
  34.16015629  2.31703528 34.99899875
   0.29842255  0.07400447  0.00162304
  31.75040955 32.78816483  0.00083311
  30.49910291 34.95078397 34.99825454
  31.71616193  1.97387739 34.99751426
  33.70317547 33.75957318  0.00150234
  32.25637771 33.73766830  0.00047938
  31.57798003 34.90409079 34.99907741
  33.60852134  1.23701978 34.99947462
 


--------------------------------------------------------------------------------------------------------


 use parallel FFT for wavefunctions z direction half grid
 k-point  1 :   0.0000 0.0000 0.0000  plane waves: 3115599

 maximum and minimum number of plane-waves per node :    389462   389421

 maximum number of plane-waves:   3115599
 maximum index in each direction: 
   IXMAX=  114   IYMAX=  114   IZMAX=  114
   IXMIN= -114   IYMIN= -114   IZMIN=    0

 NGX is ok and might be reduce to 458
 NGY is ok and might be reduce to 458
 NGZ is ok and might be reduce to 458

 parallel 3D FFT for wavefunctions:
    minimum data exchange during FFTs selected (reduces bandwidth)
 parallel 3D FFT for charge:
    minimum data exchange during FFTs selected (reduces bandwidth)


 total amount of memory used by VASP on root node 12970072. kBytes
========================================================================

   base      :      30000. kBytes
   nonl-proj :     236767. kBytes
   fftplans  :    3999886. kBytes
   grid      :    8528947. kBytes
   one-center:          8. kBytes
   wavefun   :     174464. kBytes
 
     INWAV:  cpu time    0.0001: real time    0.0003
 Broyden mixing: mesh for mixing (old mesh)
   NGX =229   NGY =229   NGZ =229
  (NGX  =960   NGY  =960   NGZ  =960)
  gives a total of ****** points

 initial charge density was supplied:
 charge density of overlapping atoms calculated
 number of electron      42.0000000 magnetization 
 keeping initial charge density in first step


--------------------------------------------------------------------------------------------------------


 Maximum index for augmentation-charges         4138 (set IRDMAX)


--------------------------------------------------------------------------------------------------------


 First call to EWALD:  gamma=   0.051
 Maximum number of real-space cells 3x 3x 3
 Maximum number of reciprocal cells 3x 3x 3

 FEWALD executed in parallel
    FEWALD:  cpu time    0.0021: real time    0.0021


----------------------------------------- Iteration    1(   1)  ---------------------------------------


    POTLOK:  cpu time   51.7071: real time   51.8329
    SETDIJ:  cpu time    0.1258: real time    0.1261
     EDDAV:  cpu time   57.2071: real time   57.3464
       DOS:  cpu time    0.0001: real time    0.0001
    --------------------------------------------
      LOOP:  cpu time  109.0422: real time  109.3092

 eigenvalue-minimisations  :    72
 total energy-change (2. order) : 0.4339939E+03  (-0.9135532E+03)
 number of electron      42.0000000 magnetization 
 augmentation part       42.0000000 magnetization 

 Free energy of the ion-electron system (eV)
  ---------------------------------------------------
  alpha Z        PSCENC =         0.17739900
  Ewald energy   TEWEN  =      4015.95005425
  -Hartree energ DENC   =     -5524.72228203
  -exchange      EXHF   =         0.00000000
  -V(xc)+E(xc)   XCENC  =       159.77897254
  PAW double counting   =      1543.07547066    -1553.88115226
  entropy T*S    EENTRO =        -0.00065805
  eigenvalues    EBANDS =      -238.81373682
  atomic energy  EATOM  =      2032.42985693
  Solvation  Ediel_sol  =         0.00000000
  ---------------------------------------------------
  free energy    TOTEN  =       433.99392422 eV

  energy without entropy =      433.99458227  energy(sigma->0) =      433.99425325


--------------------------------------------------------------------------------------------------------




----------------------------------------- Iteration    1(   2)  ---------------------------------------


     EDDAV:  cpu time   61.6124: real time   61.7623
       DOS:  cpu time    0.0001: real time    0.0001
    --------------------------------------------
      LOOP:  cpu time   61.6167: real time   61.7689

 eigenvalue-minimisations  :    80
 total energy-change (2. order) :-0.1704459E+03  (-0.1698426E+03)
 number of electron      42.0000000 magnetization 
 augmentation part       42.0000000 magnetization 

 Free energy of the ion-electron system (eV)
  ---------------------------------------------------
  alpha Z        PSCENC =         0.17739900
  Ewald energy   TEWEN  =      4015.95005425
  -Hartree energ DENC   =     -5524.72228203
  -exchange      EXHF   =         0.00000000
  -V(xc)+E(xc)   XCENC  =       159.77897254
  PAW double counting   =      1543.07547066    -1553.88115226
  entropy T*S    EENTRO =        -0.00027775
  eigenvalues    EBANDS =      -409.25998002
  atomic energy  EATOM  =      2032.42985693
  Solvation  Ediel_sol  =         0.00000000
  ---------------------------------------------------
  free energy    TOTEN  =       263.54806132 eV

  energy without entropy =      263.54833907  energy(sigma->0) =      263.54820020


--------------------------------------------------------------------------------------------------------




----------------------------------------- Iteration    1(   3)  ---------------------------------------


     EDDAV:  cpu time   71.4968: real time   71.6706
       DOS:  cpu time    0.0000: real time    0.0000
    --------------------------------------------
      LOOP:  cpu time   71.5018: real time   71.6781

 eigenvalue-minimisations  :    96
 total energy-change (2. order) :-0.2016977E+03  (-0.1997728E+03)
 number of electron      42.0000000 magnetization 
 augmentation part       42.0000000 magnetization 

 Free energy of the ion-electron system (eV)
  ---------------------------------------------------
  alpha Z        PSCENC =         0.17739900
  Ewald energy   TEWEN  =      4015.95005425
  -Hartree energ DENC   =     -5524.72228203
  -exchange      EXHF   =         0.00000000
  -V(xc)+E(xc)   XCENC  =       159.77897254
  PAW double counting   =      1543.07547066    -1553.88115226
  entropy T*S    EENTRO =        -0.00000000
  eigenvalues    EBANDS =      -610.95798672
  atomic energy  EATOM  =      2032.42985693
  Solvation  Ediel_sol  =         0.00000000
  ---------------------------------------------------
  free energy    TOTEN  =        61.85033237 eV

  energy without entropy =       61.85033237  energy(sigma->0) =       61.85033237


--------------------------------------------------------------------------------------------------------




----------------------------------------- Iteration    1(   4)  ---------------------------------------


     EDDAV:  cpu time   61.7150: real time   61.8652
       DOS:  cpu time    0.0000: real time    0.0000
    --------------------------------------------
      LOOP:  cpu time   61.7204: real time   61.8729

 eigenvalue-minimisations  :    80
 total energy-change (2. order) :-0.1176167E+03  (-0.1173693E+03)
 number of electron      42.0000000 magnetization 
 augmentation part       42.0000000 magnetization 

 Free energy of the ion-electron system (eV)
  ---------------------------------------------------
  alpha Z        PSCENC =         0.17739900
  Ewald energy   TEWEN  =      4015.95005425
  -Hartree energ DENC   =     -5524.72228203
  -exchange      EXHF   =         0.00000000
  -V(xc)+E(xc)   XCENC  =       159.77897254
  PAW double counting   =      1543.07547066    -1553.88115226
  entropy T*S    EENTRO =        -0.00000000
  eigenvalues    EBANDS =      -728.57471010
  atomic energy  EATOM  =      2032.42985693
  Solvation  Ediel_sol  =         0.00000000
  ---------------------------------------------------
  free energy    TOTEN  =       -55.76639101 eV

  energy without entropy =      -55.76639101  energy(sigma->0) =      -55.76639101


--------------------------------------------------------------------------------------------------------




----------------------------------------- Iteration    1(   5)  ---------------------------------------


     EDDAV:  cpu time   66.7152: real time   66.8775
       DOS:  cpu time    0.0000: real time    0.0000
    CHARGE:  cpu time    8.5877: real time    8.6086
    MIXING:  cpu time    1.4128: real time    1.4162
    --------------------------------------------
      LOOP:  cpu time   76.7210: real time   76.9097

 eigenvalue-minimisations  :    88
 total energy-change (2. order) :-0.3249620E+02  (-0.3248723E+02)
 number of electron      42.0000000 magnetization 
 augmentation part        2.1654575 magnetization 

 Broyden mixing:
  rms(total) = 0.14429E+01    rms(broyden)= 0.14429E+01
  rms(prec ) = 0.14873E+01
  weight for this iteration     100.00

 Free energy of the ion-electron system (eV)
  ---------------------------------------------------
  alpha Z        PSCENC =         0.17739900
  Ewald energy   TEWEN  =      4015.95005425
  -Hartree energ DENC   =     -5524.72228203
  -exchange      EXHF   =         0.00000000
  -V(xc)+E(xc)   XCENC  =       159.77897254
  PAW double counting   =      1543.07547066    -1553.88115226
  entropy T*S    EENTRO =        -0.00000000
  eigenvalues    EBANDS =      -761.07090542
  atomic energy  EATOM  =      2032.42985693
  Solvation  Ediel_sol  =         0.00000000
  ---------------------------------------------------
  free energy    TOTEN  =       -88.26258632 eV

  energy without entropy =      -88.26258632  energy(sigma->0) =      -88.26258632


--------------------------------------------------------------------------------------------------------




----------------------------------------- Iteration    1(   6)  ---------------------------------------


    POTLOK:  cpu time   51.3283: real time   51.4531
    SETDIJ:  cpu time    0.1452: real time    0.1456
     EDDAV:  cpu time   71.4955: real time   71.6693
       DOS:  cpu time    0.0000: real time    0.0000
    CHARGE:  cpu time    8.4283: real time    8.4489
    MIXING:  cpu time    1.4645: real time    1.4681
    --------------------------------------------
      LOOP:  cpu time  132.8643: real time  133.1896

 eigenvalue-minimisations  :    96
 total energy-change (2. order) : 0.5352085E+01  (-0.2306962E+01)
 number of electron      42.0000000 magnetization 
 augmentation part        1.8446753 magnetization 

 Broyden mixing:
  rms(total) = 0.67400E+00    rms(broyden)= 0.67400E+00
  rms(prec ) = 0.69179E+00
  weight for this iteration     100.00

 eigenvalues of (default mixing * dielectric matrix)
  average eigenvalue GAMMA=   1.2129
  1.2129

 Free energy of the ion-electron system (eV)
  ---------------------------------------------------
  alpha Z        PSCENC =         0.17739900
  Ewald energy   TEWEN  =      4015.95005425
  -Hartree energ DENC   =     -5599.75323410
  -exchange      EXHF   =         0.00000000
  -V(xc)+E(xc)   XCENC  =       163.78828787
  PAW double counting   =      1925.99554856    -1937.69118313
  entropy T*S    EENTRO =        -0.00000000
  eigenvalues    EBANDS =      -683.80723092
  atomic energy  EATOM  =      2032.42985693
  Solvation  Ediel_sol  =         0.00000000
  ---------------------------------------------------
  free energy    TOTEN  =       -82.91050154 eV

  energy without entropy =      -82.91050154  energy(sigma->0) =      -82.91050154


--------------------------------------------------------------------------------------------------------




----------------------------------------- Iteration    1(   7)  ---------------------------------------


    POTLOK:  cpu time   51.2898: real time   51.4145
    SETDIJ:  cpu time    0.1242: real time    0.1245
     EDDAV:  cpu time   66.4197: real time   66.5812
       DOS:  cpu time    0.0000: real time    0.0000
    CHARGE:  cpu time    8.4317: real time    8.4523
    MIXING:  cpu time    1.4975: real time    1.5012
    --------------------------------------------
      LOOP:  cpu time  127.7652: real time  128.0779

 eigenvalue-minimisations  :    88
 total energy-change (2. order) : 0.1041769E+01  (-0.2489103E+00)
 number of electron      42.0000000 magnetization 
 augmentation part        1.8178389 magnetization 

 Broyden mixing:
  rms(total) = 0.32547E+00    rms(broyden)= 0.32547E+00
  rms(prec ) = 0.33409E+00
  weight for this iteration     100.00

 eigenvalues of (default mixing * dielectric matrix)
  average eigenvalue GAMMA=   1.4650
  1.1000  1.8301

 Free energy of the ion-electron system (eV)
  ---------------------------------------------------
  alpha Z        PSCENC =         0.17739900
  Ewald energy   TEWEN  =      4015.95005425
  -Hartree energ DENC   =     -5639.25514598
  -exchange      EXHF   =         0.00000000
  -V(xc)+E(xc)   XCENC  =       165.60617227
  PAW double counting   =      2169.48678734    -2181.43550778
  entropy T*S    EENTRO =        -0.00000000
  eigenvalues    EBANDS =      -644.82834814
  atomic energy  EATOM  =      2032.42985693
  Solvation  Ediel_sol  =         0.00000000
  ---------------------------------------------------
  free energy    TOTEN  =       -81.86873212 eV

  energy without entropy =      -81.86873212  energy(sigma->0) =      -81.86873212


--------------------------------------------------------------------------------------------------------




----------------------------------------- Iteration    1(   8)  ---------------------------------------


    POTLOK:  cpu time   51.2785: real time   51.4032
    SETDIJ:  cpu time    0.1400: real time    0.1403
     EDDAV:  cpu time   66.4241: real time   66.5857
       DOS:  cpu time    0.0000: real time    0.0000
    CHARGE:  cpu time    8.4257: real time    8.4463
    MIXING:  cpu time    1.5496: real time    1.5534
    --------------------------------------------
      LOOP:  cpu time  127.8202: real time  128.1333

 eigenvalue-minimisations  :    88
 total energy-change (2. order) : 0.2779522E+00  (-0.5223910E-01)
 number of electron      42.0000000 magnetization 
 augmentation part        1.7951953 magnetization 

 Broyden mixing:
  rms(total) = 0.10825E+00    rms(broyden)= 0.10825E+00
  rms(prec ) = 0.11343E+00
  weight for this iteration     100.00

 eigenvalues of (default mixing * dielectric matrix)
  average eigenvalue GAMMA=   1.5322
  2.2169  1.0074  1.3721

 Free energy of the ion-electron system (eV)
  ---------------------------------------------------
  alpha Z        PSCENC =         0.17739900
  Ewald energy   TEWEN  =      4015.95005425
  -Hartree energ DENC   =     -5663.79807344
  -exchange      EXHF   =         0.00000000
  -V(xc)+E(xc)   XCENC  =       166.76879538
  PAW double counting   =      2330.07148841    -2342.31603046
  entropy T*S    EENTRO =        -0.00000000
  eigenvalues    EBANDS =      -620.87426994
  atomic energy  EATOM  =      2032.42985693
  Solvation  Ediel_sol  =         0.00000000
  ---------------------------------------------------
  free energy    TOTEN  =       -81.59077988 eV

  energy without entropy =      -81.59077988  energy(sigma->0) =      -81.59077988


--------------------------------------------------------------------------------------------------------




----------------------------------------- Iteration    1(   9)  ---------------------------------------


    POTLOK:  cpu time   51.2454: real time   51.3717
    SETDIJ:  cpu time    0.1242: real time    0.1245
     EDDAV:  cpu time   66.6650: real time   66.8271
       DOS:  cpu time    0.0000: real time    0.0000
    CHARGE:  cpu time    8.4395: real time    8.4600
    MIXING:  cpu time    1.5915: real time    1.5953
    --------------------------------------------
      LOOP:  cpu time  128.0680: real time  128.3834

 eigenvalue-minimisations  :    88
 total energy-change (2. order) : 0.4159507E-01  (-0.7246888E-02)
 number of electron      42.0000000 magnetization 
 augmentation part        1.7865769 magnetization 

 Broyden mixing:
  rms(total) = 0.43023E-01    rms(broyden)= 0.43023E-01
  rms(prec ) = 0.47597E-01
  weight for this iteration     100.00

 eigenvalues of (default mixing * dielectric matrix)
  average eigenvalue GAMMA=   1.5137
  2.3431  1.0243  1.0243  1.6633

 Free energy of the ion-electron system (eV)
  ---------------------------------------------------
  alpha Z        PSCENC =         0.17739900
  Ewald energy   TEWEN  =      4015.95005425
  -Hartree energ DENC   =     -5671.61850401
  -exchange      EXHF   =         0.00000000
  -V(xc)+E(xc)   XCENC  =       167.08887082
  PAW double counting   =      2368.57764598    -2380.88158637
  entropy T*S    EENTRO =        -0.00000000
  eigenvalues    EBANDS =      -613.27292140
  atomic energy  EATOM  =      2032.42985693
  Solvation  Ediel_sol  =         0.00000000
  ---------------------------------------------------
  free energy    TOTEN  =       -81.54918481 eV

  energy without entropy =      -81.54918481  energy(sigma->0) =      -81.54918481


--------------------------------------------------------------------------------------------------------




----------------------------------------- Iteration    1(  10)  ---------------------------------------


    POTLOK:  cpu time   51.2953: real time   51.4200
    SETDIJ:  cpu time    0.1427: real time    0.1431
     EDDAV:  cpu time   66.6181: real time   66.7802
       DOS:  cpu time    0.0000: real time    0.0000
    CHARGE:  cpu time    8.4314: real time    8.4519
    MIXING:  cpu time    1.6401: real time    1.6441
    --------------------------------------------
      LOOP:  cpu time  128.1298: real time  128.4432

 eigenvalue-minimisations  :    88
 total energy-change (2. order) : 0.2957818E-02  (-0.1544864E-02)
 number of electron      42.0000000 magnetization 
 augmentation part        1.7949805 magnetization 

 Broyden mixing:
  rms(total) = 0.16994E-01    rms(broyden)= 0.16994E-01
  rms(prec ) = 0.22645E-01
  weight for this iteration     100.00

 eigenvalues of (default mixing * dielectric matrix)
  average eigenvalue GAMMA=   1.5199
  2.4461  1.9633  0.9467  0.9467  1.2968

 Free energy of the ion-electron system (eV)
  ---------------------------------------------------
  alpha Z        PSCENC =         0.17739900
  Ewald energy   TEWEN  =      4015.95005425
  -Hartree energ DENC   =     -5674.42749246
  -exchange      EXHF   =         0.00000000
  -V(xc)+E(xc)   XCENC  =       167.12223217
  PAW double counting   =      2369.43526215    -2381.71024096
  entropy T*S    EENTRO =        -0.00000000
  eigenvalues    EBANDS =      -610.52329805
  atomic energy  EATOM  =      2032.42985693
  Solvation  Ediel_sol  =         0.00000000
  ---------------------------------------------------
  free energy    TOTEN  =       -81.54622699 eV

  energy without entropy =      -81.54622699  energy(sigma->0) =      -81.54622699


--------------------------------------------------------------------------------------------------------




----------------------------------------- Iteration    1(  11)  ---------------------------------------


    POTLOK:  cpu time   51.3422: real time   51.4670
    SETDIJ:  cpu time    0.1387: real time    0.1390
     EDDAV:  cpu time   61.9070: real time   62.0576
       DOS:  cpu time    0.0000: real time    0.0000
    CHARGE:  cpu time    8.4350: real time    8.4556
    MIXING:  cpu time    1.6986: real time    1.7027
    --------------------------------------------
      LOOP:  cpu time  123.5237: real time  123.8265

 eigenvalue-minimisations  :    80
 total energy-change (2. order) :-0.2728415E-02  (-0.5416063E-03)
 number of electron      42.0000000 magnetization 
 augmentation part        1.7923310 magnetization 

 Broyden mixing:
  rms(total) = 0.11321E-01    rms(broyden)= 0.11321E-01
  rms(prec ) = 0.15733E-01
  weight for this iteration     100.00

 eigenvalues of (default mixing * dielectric matrix)
  average eigenvalue GAMMA=   1.5013
  2.3720  2.3720  0.9592  0.9592  1.1725  1.1725

 Free energy of the ion-electron system (eV)
  ---------------------------------------------------
  alpha Z        PSCENC =         0.17739900
  Ewald energy   TEWEN  =      4015.95005425
  -Hartree energ DENC   =     -5677.40108614
  -exchange      EXHF   =         0.00000000
  -V(xc)+E(xc)   XCENC  =       167.17559871
  PAW double counting   =      2368.38053931    -2380.65109877
  entropy T*S    EENTRO =        -0.00000000
  eigenvalues    EBANDS =      -607.61021868
  atomic energy  EATOM  =      2032.42985693
  Solvation  Ediel_sol  =         0.00000000
  ---------------------------------------------------
  free energy    TOTEN  =       -81.54895541 eV

  energy without entropy =      -81.54895541  energy(sigma->0) =      -81.54895541


--------------------------------------------------------------------------------------------------------




----------------------------------------- Iteration    1(  12)  ---------------------------------------


    POTLOK:  cpu time   51.3610: real time   51.4858
    SETDIJ:  cpu time    0.1327: real time    0.1331
     EDDAV:  cpu time   61.8623: real time   62.0127
       DOS:  cpu time    0.0000: real time    0.0000
    CHARGE:  cpu time    8.4305: real time    8.4510
    MIXING:  cpu time    1.7583: real time    1.7626
    --------------------------------------------
      LOOP:  cpu time  123.5470: real time  123.8496

 eigenvalue-minimisations  :    80
 total energy-change (2. order) :-0.6232373E-02  (-0.3083200E-03)
 number of electron      42.0000000 magnetization 
 augmentation part        1.7919838 magnetization 

 Broyden mixing:
  rms(total) = 0.73735E-02    rms(broyden)= 0.73735E-02
  rms(prec ) = 0.10687E-01
  weight for this iteration     100.00

 eigenvalues of (default mixing * dielectric matrix)
  average eigenvalue GAMMA=   1.6924
  3.7302  2.4404  1.6605  1.2084  0.9314  0.9314  0.9448

 Free energy of the ion-electron system (eV)
  ---------------------------------------------------
  alpha Z        PSCENC =         0.17739900
  Ewald energy   TEWEN  =      4015.95005425
  -Hartree energ DENC   =     -5679.52863947
  -exchange      EXHF   =         0.00000000
  -V(xc)+E(xc)   XCENC  =       167.18913693
  PAW double counting   =      2365.04040994    -2377.30704714
  entropy T*S    EENTRO =        -0.00000000
  eigenvalues    EBANDS =      -605.50635822
  atomic energy  EATOM  =      2032.42985693
  Solvation  Ediel_sol  =         0.00000000
  ---------------------------------------------------
  free energy    TOTEN  =       -81.55518778 eV

  energy without entropy =      -81.55518778  energy(sigma->0) =      -81.55518778


--------------------------------------------------------------------------------------------------------




----------------------------------------- Iteration    1(  13)  ---------------------------------------


    POTLOK:  cpu time   51.3886: real time   51.5135
    SETDIJ:  cpu time    0.1266: real time    0.1269
     EDDAV:  cpu time   52.4095: real time   52.5370
       DOS:  cpu time    0.0000: real time    0.0000
    CHARGE:  cpu time    8.4204: real time    8.4409
    MIXING:  cpu time    1.8298: real time    1.8343
    --------------------------------------------
      LOOP:  cpu time  114.1772: real time  114.4569

 eigenvalue-minimisations  :    64
 total energy-change (2. order) :-0.7282079E-02  (-0.3608789E-03)
 number of electron      42.0000000 magnetization 
 augmentation part        1.7912840 magnetization 

 Broyden mixing:
  rms(total) = 0.48098E-02    rms(broyden)= 0.48098E-02
  rms(prec ) = 0.63699E-02
  weight for this iteration     100.00

 eigenvalues of (default mixing * dielectric matrix)
  average eigenvalue GAMMA=   1.7651
  4.2899  2.4588  1.7791  1.3305  1.3305  0.9926  0.9696  0.9696

 Free energy of the ion-electron system (eV)
  ---------------------------------------------------
  alpha Z        PSCENC =         0.17739900
  Ewald energy   TEWEN  =      4015.95005425
  -Hartree energ DENC   =     -5682.60501171
  -exchange      EXHF   =         0.00000000
  -V(xc)+E(xc)   XCENC  =       167.22582355
  PAW double counting   =      2363.89211223    -2376.15509195
  entropy T*S    EENTRO =        -0.00000000
  eigenvalues    EBANDS =      -602.47761215
  atomic energy  EATOM  =      2032.42985693
  Solvation  Ediel_sol  =         0.00000000
  ---------------------------------------------------
  free energy    TOTEN  =       -81.56246986 eV

  energy without entropy =      -81.56246986  energy(sigma->0) =      -81.56246986


--------------------------------------------------------------------------------------------------------




----------------------------------------- Iteration    1(  14)  ---------------------------------------


    POTLOK:  cpu time   51.3106: real time   51.4379
    SETDIJ:  cpu time    0.1414: real time    0.1418
     EDDAV:  cpu time   61.5393: real time   61.6890
       DOS:  cpu time    0.0000: real time    0.0000
    CHARGE:  cpu time    8.4347: real time    8.4552
    MIXING:  cpu time    1.8889: real time    1.8935
    --------------------------------------------
      LOOP:  cpu time  123.3172: real time  123.6221

 eigenvalue-minimisations  :    80
 total energy-change (2. order) :-0.6587512E-02  (-0.1589891E-03)
 number of electron      42.0000000 magnetization 
 augmentation part        1.7910253 magnetization 

 Broyden mixing:
  rms(total) = 0.34687E-02    rms(broyden)= 0.34687E-02
  rms(prec ) = 0.43528E-02
  weight for this iteration     100.00

 eigenvalues of (default mixing * dielectric matrix)
  average eigenvalue GAMMA=   1.8303
  5.0347  2.6005  2.2385  1.7656  0.9363  0.9363  1.0913  0.9349  0.9349

 Free energy of the ion-electron system (eV)
  ---------------------------------------------------
  alpha Z        PSCENC =         0.17739900
  Ewald energy   TEWEN  =      4015.95005425
  -Hartree energ DENC   =     -5683.71261923
  -exchange      EXHF   =         0.00000000
  -V(xc)+E(xc)   XCENC  =       167.23074706
  PAW double counting   =      2363.98366015    -2376.24401142
  entropy T*S    EENTRO =        -0.00000000
  eigenvalues    EBANDS =      -601.38414410
  atomic energy  EATOM  =      2032.42985693
  Solvation  Ediel_sol  =         0.00000000
  ---------------------------------------------------
  free energy    TOTEN  =       -81.56905737 eV

  energy without entropy =      -81.56905737  energy(sigma->0) =      -81.56905737


--------------------------------------------------------------------------------------------------------




----------------------------------------- Iteration    1(  15)  ---------------------------------------


    POTLOK:  cpu time   51.3630: real time   51.4879
    SETDIJ:  cpu time    0.1352: real time    0.1356
     EDDAV:  cpu time   47.6020: real time   47.7178
       DOS:  cpu time    0.0000: real time    0.0000
    CHARGE:  cpu time    8.4328: real time    8.4533
    MIXING:  cpu time    1.9633: real time    1.9681
    --------------------------------------------
      LOOP:  cpu time  109.4986: real time  109.7670

 eigenvalue-minimisations  :    56
 total energy-change (2. order) :-0.4445234E-02  (-0.4698170E-04)
 number of electron      42.0000000 magnetization 
 augmentation part        1.7913197 magnetization 

 Broyden mixing:
  rms(total) = 0.23992E-02    rms(broyden)= 0.23992E-02
  rms(prec ) = 0.29015E-02
  weight for this iteration     100.00

 eigenvalues of (default mixing * dielectric matrix)
  average eigenvalue GAMMA=   1.8822
  5.7131  2.9943  2.3642  1.6234  1.2266  1.0471  1.0471  0.9123  0.9471  0.9471

 Free energy of the ion-electron system (eV)
  ---------------------------------------------------
  alpha Z        PSCENC =         0.17739900
  Ewald energy   TEWEN  =      4015.95005425
  -Hartree energ DENC   =     -5684.15748539
  -exchange      EXHF   =         0.00000000
  -V(xc)+E(xc)   XCENC  =       167.22330107
  PAW double counting   =      2363.69968665    -2375.96045838
  entropy T*S    EENTRO =        -0.00000000
  eigenvalues    EBANDS =      -600.93585673
  atomic energy  EATOM  =      2032.42985693
  Solvation  Ediel_sol  =         0.00000000
  ---------------------------------------------------
  free energy    TOTEN  =       -81.57350260 eV

  energy without entropy =      -81.57350260  energy(sigma->0) =      -81.57350260


--------------------------------------------------------------------------------------------------------




----------------------------------------- Iteration    1(  16)  ---------------------------------------


    POTLOK:  cpu time   51.3622: real time   51.4870
    SETDIJ:  cpu time    0.1364: real time    0.1368
     EDDAV:  cpu time   56.9000: real time   57.0384
       DOS:  cpu time    0.0000: real time    0.0000
    CHARGE:  cpu time    8.4400: real time    8.4605
    MIXING:  cpu time    2.0551: real time    2.0601
    --------------------------------------------
      LOOP:  cpu time  118.8960: real time  119.1876

 eigenvalue-minimisations  :    72
 total energy-change (2. order) :-0.2572108E-02  (-0.3431569E-04)
 number of electron      42.0000000 magnetization 
 augmentation part        1.7910893 magnetization 

 Broyden mixing:
  rms(total) = 0.11357E-02    rms(broyden)= 0.11357E-02
  rms(prec ) = 0.15411E-02
  weight for this iteration     100.00

 eigenvalues of (default mixing * dielectric matrix)
  average eigenvalue GAMMA=   1.9468
  6.5163  3.2438  2.2784  1.9165  1.5904  1.0351  1.0351  1.0095  0.9737  0.9080
  0.9080

 Free energy of the ion-electron system (eV)
  ---------------------------------------------------
  alpha Z        PSCENC =         0.17739900
  Ewald energy   TEWEN  =      4015.95005425
  -Hartree energ DENC   =     -5684.39510723
  -exchange      EXHF   =         0.00000000
  -V(xc)+E(xc)   XCENC  =       167.22069460
  PAW double counting   =      2363.76886258    -2376.03088784
  entropy T*S    EENTRO =        -0.00000000
  eigenvalues    EBANDS =      -600.69694700
  atomic energy  EATOM  =      2032.42985693
  Solvation  Ediel_sol  =         0.00000000
  ---------------------------------------------------
  free energy    TOTEN  =       -81.57607471 eV

  energy without entropy =      -81.57607471  energy(sigma->0) =      -81.57607471


--------------------------------------------------------------------------------------------------------




----------------------------------------- Iteration    1(  17)  ---------------------------------------


    POTLOK:  cpu time   51.3236: real time   51.4484
    SETDIJ:  cpu time    0.1476: real time    0.1480
     EDDAV:  cpu time   61.7310: real time   61.8811
       DOS:  cpu time    0.0000: real time    0.0000
    CHARGE:  cpu time    8.4367: real time    8.4572
    MIXING:  cpu time    2.1394: real time    2.1446
    --------------------------------------------
      LOOP:  cpu time  123.7808: real time  124.0952

 eigenvalue-minimisations  :    80
 total energy-change (2. order) :-0.2090965E-02  (-0.1096160E-04)
 number of electron      42.0000000 magnetization 
 augmentation part        1.7912238 magnetization 

 Broyden mixing:
  rms(total) = 0.64571E-03    rms(broyden)= 0.64571E-03
  rms(prec ) = 0.88574E-03
  weight for this iteration     100.00

 eigenvalues of (default mixing * dielectric matrix)
  average eigenvalue GAMMA=   2.0647
  7.3677  3.9440  2.5003  2.2447  1.6592  1.0485  1.0485  1.2508  0.9367  0.9367
  0.9200  0.9200

 Free energy of the ion-electron system (eV)
  ---------------------------------------------------
  alpha Z        PSCENC =         0.17739900
  Ewald energy   TEWEN  =      4015.95005425
  -Hartree energ DENC   =     -5684.49622512
  -exchange      EXHF   =         0.00000000
  -V(xc)+E(xc)   XCENC  =       167.21561234
  PAW double counting   =      2363.63364410    -2375.89519204
  entropy T*S    EENTRO =        -0.00000000
  eigenvalues    EBANDS =      -600.59331512
  atomic energy  EATOM  =      2032.42985693
  Solvation  Ediel_sol  =         0.00000000
  ---------------------------------------------------
  free energy    TOTEN  =       -81.57816568 eV

  energy without entropy =      -81.57816568  energy(sigma->0) =      -81.57816568


--------------------------------------------------------------------------------------------------------




----------------------------------------- Iteration    1(  18)  ---------------------------------------


    POTLOK:  cpu time   51.2962: real time   51.4209
    SETDIJ:  cpu time    0.1392: real time    0.1395
     EDDAV:  cpu time   52.4523: real time   52.5799
       DOS:  cpu time    0.0000: real time    0.0000
    CHARGE:  cpu time    8.4366: real time    8.4571
    MIXING:  cpu time    2.2205: real time    2.2260
    --------------------------------------------
      LOOP:  cpu time  114.5472: real time  114.8278

 eigenvalue-minimisations  :    64
 total energy-change (2. order) :-0.1281148E-02  (-0.7108643E-05)
 number of electron      42.0000000 magnetization 
 augmentation part        1.7911573 magnetization 

 Broyden mixing:
  rms(total) = 0.37059E-03    rms(broyden)= 0.37059E-03
  rms(prec ) = 0.49302E-03
  weight for this iteration     100.00

 eigenvalues of (default mixing * dielectric matrix)
  average eigenvalue GAMMA=   2.1121
  7.8782  4.3538  2.6921  2.3248  1.7725  1.5303  1.0413  1.0413  1.0912  0.9669
  0.9669  0.8992  0.8992

 Free energy of the ion-electron system (eV)
  ---------------------------------------------------
  alpha Z        PSCENC =         0.17739900
  Ewald energy   TEWEN  =      4015.95005425
  -Hartree energ DENC   =     -5684.54025963
  -exchange      EXHF   =         0.00000000
  -V(xc)+E(xc)   XCENC  =       167.21361614
  PAW double counting   =      2363.74301784    -2376.00494080
  entropy T*S    EENTRO =        -0.00000000
  eigenvalues    EBANDS =      -600.54819055
  atomic energy  EATOM  =      2032.42985693
  Solvation  Ediel_sol  =         0.00000000
  ---------------------------------------------------
  free energy    TOTEN  =       -81.57944683 eV

  energy without entropy =      -81.57944683  energy(sigma->0) =      -81.57944683


--------------------------------------------------------------------------------------------------------




----------------------------------------- Iteration    1(  19)  ---------------------------------------


    POTLOK:  cpu time   51.2980: real time   51.4227
    SETDIJ:  cpu time    0.1446: real time    0.1449
     EDDAV:  cpu time   61.8894: real time   62.0399
       DOS:  cpu time    0.0000: real time    0.0000
    CHARGE:  cpu time    8.4355: real time    8.4560
    MIXING:  cpu time    2.3203: real time    2.3259
    --------------------------------------------
      LOOP:  cpu time  124.0899: real time  124.3942

 eigenvalue-minimisations  :    80
 total energy-change (2. order) :-0.5758577E-03  (-0.1915760E-05)
 number of electron      42.0000000 magnetization 
 augmentation part        1.7911308 magnetization 

 Broyden mixing:
  rms(total) = 0.20955E-03    rms(broyden)= 0.20955E-03
  rms(prec ) = 0.28085E-03
  weight for this iteration     100.00

 eigenvalues of (default mixing * dielectric matrix)
  average eigenvalue GAMMA=   2.1746
  8.2986  4.8763  2.8990  2.3565  2.2325  1.6544  1.3255  1.0511  1.0511  0.9571
  0.9697  0.9697  0.9012  0.9012

 Free energy of the ion-electron system (eV)
  ---------------------------------------------------
  alpha Z        PSCENC =         0.17739900
  Ewald energy   TEWEN  =      4015.95005425
  -Hartree energ DENC   =     -5684.55454466
  -exchange      EXHF   =         0.00000000
  -V(xc)+E(xc)   XCENC  =       167.21285083
  PAW double counting   =      2363.72764610    -2375.98947927
  entropy T*S    EENTRO =        -0.00000000
  eigenvalues    EBANDS =      -600.53380585
  atomic energy  EATOM  =      2032.42985693
  Solvation  Ediel_sol  =         0.00000000
  ---------------------------------------------------
  free energy    TOTEN  =       -81.58002268 eV

  energy without entropy =      -81.58002268  energy(sigma->0) =      -81.58002268


--------------------------------------------------------------------------------------------------------




----------------------------------------- Iteration    1(  20)  ---------------------------------------


    POTLOK:  cpu time   51.3015: real time   51.4264
    SETDIJ:  cpu time    0.1404: real time    0.1407
     EDDAV:  cpu time   47.8786: real time   47.9951
       DOS:  cpu time    0.0000: real time    0.0000
    CHARGE:  cpu time    8.4417: real time    8.4623
    MIXING:  cpu time    2.4132: real time    2.4190
    --------------------------------------------
      LOOP:  cpu time  110.1777: real time  110.4478

 eigenvalue-minimisations  :    56
 total energy-change (2. order) :-0.3050733E-03  (-0.5590776E-06)
 number of electron      42.0000000 magnetization 
 augmentation part        1.7911291 magnetization 

 Broyden mixing:
  rms(total) = 0.11112E-03    rms(broyden)= 0.11112E-03
  rms(prec ) = 0.15033E-03
  weight for this iteration     100.00

 eigenvalues of (default mixing * dielectric matrix)
  average eigenvalue GAMMA=   2.1988
  8.5375  5.3829  3.2520  2.4698  2.2142  1.7119  1.3538  1.0492  1.0492  1.1127
  1.1127  0.9076  0.9076  0.9608  0.9608

 Free energy of the ion-electron system (eV)
  ---------------------------------------------------
  alpha Z        PSCENC =         0.17739900
  Ewald energy   TEWEN  =      4015.95005425
  -Hartree energ DENC   =     -5684.55183594
  -exchange      EXHF   =         0.00000000
  -V(xc)+E(xc)   XCENC  =       167.21213878
  PAW double counting   =      2363.70859276    -2375.97033675
  entropy T*S    EENTRO =        -0.00000000
  eigenvalues    EBANDS =      -600.53619677
  atomic energy  EATOM  =      2032.42985693
  Solvation  Ediel_sol  =         0.00000000
  ---------------------------------------------------
  free energy    TOTEN  =       -81.58032776 eV

  energy without entropy =      -81.58032776  energy(sigma->0) =      -81.58032776


--------------------------------------------------------------------------------------------------------




----------------------------------------- Iteration    1(  21)  ---------------------------------------


    POTLOK:  cpu time   51.2391: real time   51.3636
    SETDIJ:  cpu time    0.1292: real time    0.1295
     EDDAV:  cpu time   57.3044: real time   57.4438
       DOS:  cpu time    0.0000: real time    0.0000
    CHARGE:  cpu time    8.4354: real time    8.4559
    MIXING:  cpu time    2.5333: real time    2.5395
    --------------------------------------------
      LOOP:  cpu time  119.6436: real time  119.9367

 eigenvalue-minimisations  :    72
 total energy-change (2. order) :-0.1227386E-03  (-0.2074400E-06)
 number of electron      42.0000000 magnetization 
 augmentation part        1.7911334 magnetization 

 Broyden mixing:
  rms(total) = 0.68698E-04    rms(broyden)= 0.68698E-04
  rms(prec ) = 0.92368E-04
  weight for this iteration     100.00

 eigenvalues of (default mixing * dielectric matrix)
  average eigenvalue GAMMA=   2.2379
  8.8970  5.6346  3.6312  2.5876  2.1237  2.1237  1.6600  1.3476  1.0514  1.0514
  0.9982  0.9982  0.9050  0.9050  0.9456  0.9456

 Free energy of the ion-electron system (eV)
  ---------------------------------------------------
  alpha Z        PSCENC =         0.17739900
  Ewald energy   TEWEN  =      4015.95005425
  -Hartree energ DENC   =     -5684.55387945
  -exchange      EXHF   =         0.00000000
  -V(xc)+E(xc)   XCENC  =       167.21193982
  PAW double counting   =      2363.70197449    -2375.96362919
  entropy T*S    EENTRO =        -0.00000000
  eigenvalues    EBANDS =      -600.53416634
  atomic energy  EATOM  =      2032.42985693
  Solvation  Ediel_sol  =         0.00000000
  ---------------------------------------------------
  free energy    TOTEN  =       -81.58045050 eV

  energy without entropy =      -81.58045050  energy(sigma->0) =      -81.58045050


--------------------------------------------------------------------------------------------------------




----------------------------------------- Iteration    1(  22)  ---------------------------------------


    POTLOK:  cpu time   51.1796: real time   51.3057
    SETDIJ:  cpu time    0.1490: real time    0.1494
     EDDAV:  cpu time   38.4555: real time   38.5491
       DOS:  cpu time    0.0000: real time    0.0000
    CHARGE:  cpu time    8.4382: real time    8.4587
    MIXING:  cpu time    2.6283: real time    2.6347
    --------------------------------------------
      LOOP:  cpu time  100.8529: real time  101.1024

 eigenvalue-minimisations  :    40
 total energy-change (2. order) :-0.7426569E-04  (-0.3971467E-07)
 number of electron      42.0000000 magnetization 
 augmentation part        1.7911269 magnetization 

 Broyden mixing:
  rms(total) = 0.40452E-04    rms(broyden)= 0.40452E-04
  rms(prec ) = 0.53110E-04
  weight for this iteration     100.00

 eigenvalues of (default mixing * dielectric matrix)
  average eigenvalue GAMMA=   2.2473
  8.9628  6.0739  3.9529  2.7982  2.3570  2.0742  1.6551  1.0500  1.0500  1.2648
  1.1694  1.1694  0.9102  0.9102  0.9506  0.9506  0.9044

 Free energy of the ion-electron system (eV)
  ---------------------------------------------------
  alpha Z        PSCENC =         0.17739900
  Ewald energy   TEWEN  =      4015.95005425
  -Hartree energ DENC   =     -5684.55757778
  -exchange      EXHF   =         0.00000000
  -V(xc)+E(xc)   XCENC  =       167.21185648
  PAW double counting   =      2363.70104331    -2375.96269035
  entropy T*S    EENTRO =        -0.00000000
  eigenvalues    EBANDS =      -600.53046659
  atomic energy  EATOM  =      2032.42985693
  Solvation  Ediel_sol  =         0.00000000
  ---------------------------------------------------
  free energy    TOTEN  =       -81.58052476 eV

  energy without entropy =      -81.58052476  energy(sigma->0) =      -81.58052476


--------------------------------------------------------------------------------------------------------




----------------------------------------- Iteration    1(  23)  ---------------------------------------


    POTLOK:  cpu time   51.1635: real time   51.2879
    SETDIJ:  cpu time    0.1367: real time    0.1371
     EDDAV:  cpu time   47.8252: real time   47.9416
       DOS:  cpu time    0.0000: real time    0.0000
    CHARGE:  cpu time    8.4219: real time    8.4424
    MIXING:  cpu time    2.7377: real time    2.7444
    --------------------------------------------
      LOOP:  cpu time  110.2871: real time  110.5574

 eigenvalue-minimisations  :    56
 total energy-change (2. order) :-0.2935120E-04  (-0.2227685E-07)
 number of electron      42.0000000 magnetization 
 augmentation part        1.7911374 magnetization 

 Broyden mixing:
  rms(total) = 0.25228E-04    rms(broyden)= 0.25228E-04
  rms(prec ) = 0.33059E-04
  weight for this iteration     100.00

 eigenvalues of (default mixing * dielectric matrix)
  average eigenvalue GAMMA=   2.2624
  9.0854  6.3926  4.2943  2.9019  2.4349  2.0089  2.0089  1.4453  1.4453  1.0518
  1.0518  1.0068  1.0068  0.9203  0.9203  0.9266  0.9104  0.9104

 Free energy of the ion-electron system (eV)
  ---------------------------------------------------
  alpha Z        PSCENC =         0.17739900
  Ewald energy   TEWEN  =      4015.95005425
  -Hartree energ DENC   =     -5684.55850380
  -exchange      EXHF   =         0.00000000
  -V(xc)+E(xc)   XCENC  =       167.21180348
  PAW double counting   =      2363.70545656    -2375.96710777
  entropy T*S    EENTRO =        -0.00000000
  eigenvalues    EBANDS =      -600.52951276
  atomic energy  EATOM  =      2032.42985693
  Solvation  Ediel_sol  =         0.00000000
  ---------------------------------------------------
  free energy    TOTEN  =       -81.58055411 eV

  energy without entropy =      -81.58055411  energy(sigma->0) =      -81.58055411


--------------------------------------------------------------------------------------------------------




----------------------------------------- Iteration    1(  24)  ---------------------------------------


    POTLOK:  cpu time   51.1589: real time   51.2833
    SETDIJ:  cpu time    0.1246: real time    0.1249
     EDDAV:  cpu time   38.4203: real time   38.5139
       DOS:  cpu time    0.0000: real time    0.0000
    CHARGE:  cpu time    8.4321: real time    8.4527
    MIXING:  cpu time    2.8444: real time    2.8513
    --------------------------------------------
      LOOP:  cpu time  100.9828: real time  101.2308

 eigenvalue-minimisations  :    40
 total energy-change (2. order) :-0.1688507E-04  (-0.6719258E-08)
 number of electron      42.0000000 magnetization 
 augmentation part        1.7911286 magnetization 

 Broyden mixing:
  rms(total) = 0.16505E-04    rms(broyden)= 0.16505E-04
  rms(prec ) = 0.20993E-04
  weight for this iteration     100.00

 eigenvalues of (default mixing * dielectric matrix)
  average eigenvalue GAMMA=   2.2425
  9.1354  6.6001  4.4284  3.0929  2.4943  2.1292  1.7831  1.7831  1.0518  1.0518
  1.2926  1.1341  1.1341  0.9936  0.9936  0.9016  0.9016  0.9023  0.8047

 Free energy of the ion-electron system (eV)
  ---------------------------------------------------
  alpha Z        PSCENC =         0.17739900
  Ewald energy   TEWEN  =      4015.95005425
  -Hartree energ DENC   =     -5684.56052059
  -exchange      EXHF   =         0.00000000
  -V(xc)+E(xc)   XCENC  =       167.21184290
  PAW double counting   =      2363.70815298    -2375.96983559
  entropy T*S    EENTRO =        -0.00000000
  eigenvalues    EBANDS =      -600.52752087
  atomic energy  EATOM  =      2032.42985693
  Solvation  Ediel_sol  =         0.00000000
  ---------------------------------------------------
  free energy    TOTEN  =       -81.58057100 eV

  energy without entropy =      -81.58057100  energy(sigma->0) =      -81.58057100


--------------------------------------------------------------------------------------------------------




----------------------------------------- Iteration    1(  25)  ---------------------------------------


    POTLOK:  cpu time   54.4378: real time   54.5702
    SETDIJ:  cpu time    0.7704: real time    0.7722
     EDDAV:  cpu time   55.2035: real time   55.3378
       DOS:  cpu time    0.0000: real time    0.0000
    CHARGE:  cpu time    8.4293: real time    8.4498
    MIXING:  cpu time    3.2330: real time    3.2408
    --------------------------------------------
      LOOP:  cpu time  122.0761: real time  122.3755

 eigenvalue-minimisations  :    56
 total energy-change (2. order) :-0.7608441E-05  (-0.3621366E-08)
 number of electron      42.0000000 magnetization 
 augmentation part        1.7911329 magnetization 

 Broyden mixing:
  rms(total) = 0.93541E-05    rms(broyden)= 0.93541E-05
  rms(prec ) = 0.12710E-04
  weight for this iteration     100.00

 eigenvalues of (default mixing * dielectric matrix)
  average eigenvalue GAMMA=   2.2747
  9.3129  6.8303  4.9161  3.3573  2.6012  2.3793  1.8411  1.8411  1.4084  1.4084
  1.0513  1.0513  1.0362  1.0362  0.9110  0.9110  0.9513  0.9513  0.9471  0.7524

 Free energy of the ion-electron system (eV)
  ---------------------------------------------------
  alpha Z        PSCENC =         0.17739900
  Ewald energy   TEWEN  =      4015.95005425
  -Hartree energ DENC   =     -5684.56055224
  -exchange      EXHF   =         0.00000000
  -V(xc)+E(xc)   XCENC  =       167.21182888
  PAW double counting   =      2363.70770778    -2375.96939057
  entropy T*S    EENTRO =        -0.00000000
  eigenvalues    EBANDS =      -600.52748263
  atomic energy  EATOM  =      2032.42985693
  Solvation  Ediel_sol  =         0.00000000
  ---------------------------------------------------
  free energy    TOTEN  =       -81.58057861 eV

  energy without entropy =      -81.58057861  energy(sigma->0) =      -81.58057861


--------------------------------------------------------------------------------------------------------




----------------------------------------- Iteration    1(  26)  ---------------------------------------


    POTLOK:  cpu time   59.8704: real time   60.0161
    SETDIJ:  cpu time    0.7706: real time    0.7725
     EDDAV:  cpu time   44.1201: real time   44.2274
       DOS:  cpu time    0.0000: real time    0.0000
    CHARGE:  cpu time    8.4366: real time    8.4571
    MIXING:  cpu time    3.3377: real time    3.3458
    --------------------------------------------
      LOOP:  cpu time  116.5376: real time  116.8239

 eigenvalue-minimisations  :    40
 total energy-change (2. order) :-0.5119027E-05  (-0.2486447E-08)
 number of electron      42.0000000 magnetization 
 augmentation part        1.7911293 magnetization 

 Broyden mixing:
  rms(total) = 0.73733E-05    rms(broyden)= 0.73733E-05
  rms(prec ) = 0.90034E-05
  weight for this iteration     100.00

 eigenvalues of (default mixing * dielectric matrix)
  average eigenvalue GAMMA=   2.2712
  9.3501  7.0804  5.1282  3.6592  2.7116  2.4110  1.9407  1.9407  1.3813  1.3813
  1.0509  1.0509  1.1600  1.1600  0.9960  0.9960  0.9031  0.9031  0.9001  0.9001
  0.6907

 Free energy of the ion-electron system (eV)
  ---------------------------------------------------
  alpha Z        PSCENC =         0.17739900
  Ewald energy   TEWEN  =      4015.95005425
  -Hartree energ DENC   =     -5684.56111727
  -exchange      EXHF   =         0.00000000
  -V(xc)+E(xc)   XCENC  =       167.21182790
  PAW double counting   =      2363.70635570    -2375.96803975
  entropy T*S    EENTRO =        -0.00000000
  eigenvalues    EBANDS =      -600.52692047
  atomic energy  EATOM  =      2032.42985693
  Solvation  Ediel_sol  =         0.00000000
  ---------------------------------------------------
  free energy    TOTEN  =       -81.58058372 eV

  energy without entropy =      -81.58058372  energy(sigma->0) =      -81.58058372


--------------------------------------------------------------------------------------------------------




----------------------------------------- Iteration    1(  27)  ---------------------------------------


    POTLOK:  cpu time   59.9602: real time   60.1059
    SETDIJ:  cpu time    0.7771: real time    0.7790
     EDDAV:  cpu time   49.3940: real time   49.5141
       DOS:  cpu time    0.0000: real time    0.0000
    CHARGE:  cpu time    8.4412: real time    8.4617
    MIXING:  cpu time    3.4431: real time    3.4515
    --------------------------------------------
      LOOP:  cpu time  122.0178: real time  122.3163

 eigenvalue-minimisations  :    48
 total energy-change (2. order) :-0.2200732E-05  (-0.1365120E-08)
 number of electron      42.0000000 magnetization 
 augmentation part        1.7911345 magnetization 

 Broyden mixing:
  rms(total) = 0.73570E-05    rms(broyden)= 0.73569E-05
  rms(prec ) = 0.81855E-05
  weight for this iteration     100.00

 eigenvalues of (default mixing * dielectric matrix)
[...]
  rms(prec ) = 0.21502E-05
  weight for this iteration     100.00

 eigenvalues of (default mixing * dielectric matrix)
  average eigenvalue GAMMA=   2.2899
  9.5105  7.9061  6.0078  4.6174  3.2735  2.8865  2.3762  2.0225  2.0225  1.7516
  1.3519  1.2070  1.2070  1.0501  1.0501  1.0352  1.0352  0.9075  0.9075  0.9946
  0.9946  0.9551  0.9085  0.7169  0.5530

 Free energy of the ion-electron system (eV)
  ---------------------------------------------------
  alpha Z        PSCENC =         0.17739900
  Ewald energy   TEWEN  =      4015.95005425
  -Hartree energ DENC   =     -5684.56110527
  -exchange      EXHF   =         0.00000000
  -V(xc)+E(xc)   XCENC  =       167.21182154
  PAW double counting   =      2363.70660277    -2375.96828044
  entropy T*S    EENTRO =        -0.00000000
  eigenvalues    EBANDS =      -600.52693716
  atomic energy  EATOM  =      2032.42985693
  Solvation  Ediel_sol  =         0.00000000
  ---------------------------------------------------
  free energy    TOTEN  =       -81.58058839 eV

  energy without entropy =      -81.58058839  energy(sigma->0) =      -81.58058839


--------------------------------------------------------------------------------------------------------




----------------------------------------- Iteration    1(  31)  ---------------------------------------


    POTLOK:  cpu time   60.3357: real time   60.4824
    SETDIJ:  cpu time    0.7771: real time    0.7790
     EDDAV:  cpu time   49.7832: real time   49.9043
       DOS:  cpu time    0.0000: real time    0.0000
    CHARGE:  cpu time    8.4441: real time    8.4647
    MIXING:  cpu time    3.9768: real time    3.9865
    --------------------------------------------
      LOOP:  cpu time  123.3192: real time  123.6213

 eigenvalue-minimisations  :    48
 total energy-change (2. order) :-0.2973293E-06  (-0.7776535E-10)
 number of electron      42.0000000 magnetization 
 augmentation part        1.7911326 magnetization 

 Broyden mixing:
  rms(total) = 0.10686E-05    rms(broyden)= 0.10686E-05
  rms(prec ) = 0.11915E-05
  weight for this iteration     100.00

 eigenvalues of (default mixing * dielectric matrix)
  average eigenvalue GAMMA=   2.2828
  9.5532  8.0473  6.1896  4.7874  3.5531  2.7467  2.4232  2.4232  1.7873  1.7873
  1.3782  1.3782  1.1738  1.1738  1.0506  1.0506  1.0389  1.0389  0.9666  0.9666
  0.9093  0.9093  0.8966  0.8966  0.6914  0.5336

 Free energy of the ion-electron system (eV)
  ---------------------------------------------------
  alpha Z        PSCENC =         0.17739900
  Ewald energy   TEWEN  =      4015.95005425
  -Hartree energ DENC   =     -5684.56102998
  -exchange      EXHF   =         0.00000000
  -V(xc)+E(xc)   XCENC  =       167.21181731
  PAW double counting   =      2363.70632851    -2375.96800603
  entropy T*S    EENTRO =        -0.00000000
  eigenvalues    EBANDS =      -600.52700867
  atomic energy  EATOM  =      2032.42985693
  Solvation  Ediel_sol  =         0.00000000
  ---------------------------------------------------
  free energy    TOTEN  =       -81.58058869 eV

  energy without entropy =      -81.58058869  energy(sigma->0) =      -81.58058869


--------------------------------------------------------------------------------------------------------




----------------------------------------- Iteration    1(  32)  ---------------------------------------


    POTLOK:  cpu time   60.3084: real time   60.4550
    SETDIJ:  cpu time    0.7743: real time    0.7762
     EDDAV:  cpu time   55.2570: real time   55.3915
       DOS:  cpu time    0.0000: real time    0.0000
    CHARGE:  cpu time    8.4537: real time    8.4743
    MIXING:  cpu time    4.1102: real time    4.1202
    --------------------------------------------
      LOOP:  cpu time  128.9059: real time  129.2214

 eigenvalue-minimisations  :    56
 total energy-change (2. order) :-0.1051844E-06  ( 0.2742517E-10)
 number of electron      42.0000000 magnetization 
 augmentation part        1.7911315 magnetization 

 Broyden mixing:
  rms(total) = 0.84422E-06    rms(broyden)= 0.84422E-06
  rms(prec ) = 0.92084E-06
  weight for this iteration     100.00

 eigenvalues of (default mixing * dielectric matrix)
  average eigenvalue GAMMA=   2.3055
  9.5723  8.2522  6.3779  5.0297  3.7685  2.9983  2.4741  2.4741  1.9281  1.9281
  1.7407  1.3459  1.1724  1.1724  1.0501  1.0501  1.0443  1.0443  1.0520  1.0520
  0.9095  0.9095  0.9268  0.9268  0.8532  0.6732  0.5234

 Free energy of the ion-electron system (eV)
  ---------------------------------------------------
  alpha Z        PSCENC =         0.17739900
  Ewald energy   TEWEN  =      4015.95005425
  -Hartree energ DENC   =     -5684.56103019
  -exchange      EXHF   =         0.00000000
  -V(xc)+E(xc)   XCENC  =       167.21181686
  PAW double counting   =      2363.70619471    -2375.96787287
  entropy T*S    EENTRO =        -0.00000000
  eigenvalues    EBANDS =      -600.52700748
  atomic energy  EATOM  =      2032.42985693
  Solvation  Ediel_sol  =         0.00000000
  ---------------------------------------------------
  free energy    TOTEN  =       -81.58058879 eV

  energy without entropy =      -81.58058879  energy(sigma->0) =      -81.58058879


--------------------------------------------------------------------------------------------------------




----------------------------------------- Iteration    1(  33)  ---------------------------------------


    POTLOK:  cpu time   60.4573: real time   60.6042
    SETDIJ:  cpu time    0.7750: real time    0.7768
     EDDAV:  cpu time   44.2923: real time   44.4000
       DOS:  cpu time    0.0000: real time    0.0000
    --------------------------------------------
      LOOP:  cpu time  105.5267: real time  105.7858

 eigenvalue-minimisations  :    40
 total energy-change (2. order) :-0.9474752E-07  ( 0.9501022E-10)
 number of electron      42.0000000 magnetization 
 augmentation part        1.7911315 magnetization 

 Free energy of the ion-electron system (eV)
  ---------------------------------------------------
  alpha Z        PSCENC =         0.17739900
  Ewald energy   TEWEN  =      4015.95005425
  -Hartree energ DENC   =     -5684.56103454
  -exchange      EXHF   =         0.00000000
  -V(xc)+E(xc)   XCENC  =       167.21181704
  PAW double counting   =      2363.70627316    -2375.96795164
  entropy T*S    EENTRO =        -0.00000000
  eigenvalues    EBANDS =      -600.52700307
  atomic energy  EATOM  =      2032.42985693
  Solvation  Ediel_sol  =         0.00000000
  ---------------------------------------------------
  free energy    TOTEN  =       -81.58058889 eV

  energy without entropy =      -81.58058889  energy(sigma->0) =      -81.58058889


--------------------------------------------------------------------------------------------------------




 average (electrostatic) potential at core
  the test charge radii are     0.5902  0.7215  0.5883  0.6991
  (the norm of the test charge is              1.0000)
       1 -74.3231       2 -74.7283       3 -79.8128       4 -80.2808       5 -42.5279
       6 -40.5823       7 -41.4285       8 -43.2774       9 -61.5932      10 -59.4122
      11 -60.9169      12 -62.5911
 
 
 
 E-fermi :  -6.0751     XC(G=0):  -0.0501     alpha+bet : -0.0195


 k-point     1 :       0.0000    0.0000    0.0000
  band No.  band energies     occupation 
      1     -27.3696      2.00000
      2     -26.1644      2.00000
      3     -24.8558      2.00000
      4     -23.4759      2.00000
      5     -20.0666      2.00000
      6     -17.4786      2.00000
      7     -16.7966      2.00000
      8     -15.1402      2.00000
      9     -14.0970      2.00000
     10     -13.1465      2.00000
     11     -12.1668      2.00000
     12     -11.6719      2.00000
     13     -11.1267      2.00000
     14     -10.4583      2.00000
     15     -10.1216      2.00000
     16     -10.0680      2.00000
     17      -9.3482      2.00000
     18      -7.1348      2.00000
     19      -7.0973      2.00000
     20      -6.3461      2.00000
     21      -6.1328      2.00000
     22      -2.3752      0.00000
     23      -1.1746      0.00000
     24      -1.0474      0.00000
     25      -0.2856      0.00000
     26      -0.1676      0.00000
     27       0.0110      0.00000
     28       0.0424      0.00000


--------------------------------------------------------------------------------------------------------


 soft charge-density along one line, spin component           1
         0         1         2         3         4         5         6         7         8         9
 total charge-density along one line
 
 pseudopotential strength for first ion, spin component:           1
 14.565 -14.623   0.002  -0.000  -0.000   0.009  -0.000  -0.013
-14.623  18.769  -0.001  -0.000  -0.001  -0.013   0.000   0.016
  0.002  -0.001  -7.618   0.000   0.000   4.143  -0.000  -0.001
 -0.000  -0.000   0.000  -7.560  -0.000  -0.000   3.987   0.000
 -0.000  -0.001   0.000  -0.000  -7.612  -0.001   0.000   4.126
  0.009  -0.013   4.143  -0.000  -0.001  33.134   0.000   0.002
 -0.000   0.000  -0.000   3.987   0.000   0.000  33.301  -0.000
 -0.013   0.016  -0.001   0.000   4.126   0.002  -0.000  33.151
 total augmentation occupancy for first ion, spin component:           1
  1.754   0.057  -0.015   0.000   0.002   0.001  -0.000  -0.001
  0.057   0.003   0.002  -0.000  -0.001   0.000  -0.000  -0.001
 -0.015   0.002   1.494   0.000   0.010   0.095  -0.000  -0.001
  0.000  -0.000   0.000   1.590  -0.000  -0.000   0.040   0.000
  0.002  -0.001   0.010  -0.000   1.479  -0.001   0.000   0.088
  0.001   0.000   0.095  -0.000  -0.001   0.007  -0.000  -0.000
 -0.000  -0.000  -0.000   0.040   0.000  -0.000   0.001   0.000
 -0.001  -0.001  -0.001   0.000   0.088  -0.000   0.000   0.006


------------------------ aborting loop because EDIFF is reached ----------------------------------------


    CHARGE:  cpu time    8.4288: real time    8.4493
    FORLOC:  cpu time    9.0020: real time    9.0239
    FORNL :  cpu time    8.2107: real time    8.2307
    STRESS:  cpu time   35.1262: real time   35.2115
    FORHAR:  cpu time   22.7103: real time   22.7655
    MIXING:  cpu time    4.2163: real time    4.2266
    OFIELD:  cpu time    0.0000: real time    0.0000

  FORCE on cell =-STRESS in cart. coord.  units (eV):
  Direction    XX          YY          ZZ          XY          YZ          ZX
  --------------------------------------------------------------------------------------
  Alpha Z     0.17740     0.17740     0.17740
  Ewald    1814.07270  2547.32202  -345.44449   -26.71759    -2.23199     1.52415
  Hartree  2167.65557  2705.52808   811.37740   -18.83495    -1.45801     0.95575
  E(xc)    -173.69025  -172.85953  -177.79626    -0.02309    -0.00381     0.00289
  Local   -4451.06668 -5689.57492 -1017.23910    43.86312     3.60100    -2.42125
  n-local  -122.72199  -123.59677  -117.69105     0.40780     0.00450    -0.00349
  augment    11.59176     9.58624    10.72139     0.14720     0.00086     0.00058
  Kinetic   755.60792   726.81121   835.89069     1.70240     0.08512    -0.05791
  Fock        0.00000     0.00000     0.00000     0.00000     0.00000     0.00000
  -------------------------------------------------------------------------------------
  Total       1.62644     3.39372    -0.00402     0.54488    -0.00233     0.00071
  in kB       0.06078     0.12682    -0.00015     0.02036    -0.00009     0.00003
  external pressure =        0.06 kB  Pullay stress =        0.00 kB


 VOLUME and BASIS-vectors are now :
 -----------------------------------------------------------------------------
  energy-cutoff  :     1600.00
  volume of cell :    42875.00
      direct lattice vectors                 reciprocal lattice vectors
    35.000000000  0.000000000  0.000000000     0.028571429  0.000000000  0.000000000
     0.000000000 35.000000000  0.000000000     0.000000000  0.028571429  0.000000000
     0.000000000  0.000000000 35.000000000     0.000000000  0.000000000  0.028571429

  length of vectors
    35.000000000 35.000000000 35.000000000     0.028571429  0.028571429  0.028571429


 FORCES acting on ions
    electron-ion (+dipol)            ewald-force                    non-local-force                 convergence-correction
 -----------------------------------------------------------------------------------------------
   -.219E+03 -.163E+01 -.165E+00   0.221E+03 0.626E-01 0.167E+00   -.135E+01 0.214E+01 -.186E-02   0.275E-05 -.309E-05 0.198E-07
   0.196E+03 -.170E+03 0.274E+00   -.196E+03 0.171E+03 -.275E+00   0.785E-01 -.173E+01 0.164E-02   -.284E-05 -.340E-06 0.221E-07
   -.217E+03 0.358E+03 -.397E+00   0.247E+03 -.403E+03 0.446E+00   -.293E+02 0.452E+02 -.482E-01   0.604E-06 0.290E-05 0.402E-07
   -.192E+03 -.392E+03 0.176E+00   0.218E+03 0.443E+03 -.198E+00   -.259E+02 -.501E+02 0.219E-01   0.725E-06 -.150E-05 0.599E-07
   -.111E+03 -.486E+01 -.783E-01   0.118E+03 0.514E+01 0.829E-01   -.727E+01 -.322E+00 -.504E-02   0.407E-06 -.281E-06 0.365E-08
   0.510E+02 0.761E+02 -.221E-01   -.539E+02 -.817E+02 0.244E-01   0.279E+01 0.537E+01 -.204E-02   -.665E-07 -.167E-06 -.281E-09
   0.921E+02 0.104E+01 0.656E-01   -.985E+02 -.882E+00 -.704E-01   0.608E+01 -.116E+00 0.451E-02   0.126E-07 0.231E-06 -.206E-08
   0.678E+02 -.898E+02 0.121E+00   -.718E+02 0.969E+02 -.130E+00   0.386E+01 -.680E+01 0.827E-02   0.246E-07 -.750E-06 0.669E-08
   0.168E+02 0.684E+02 -.742E-01   -.212E+02 -.712E+02 0.731E-01   0.435E+01 0.156E+01 0.870E-03   0.108E-05 0.217E-05 0.136E-07
   0.137E+03 0.175E+03 -.451E-01   -.138E+03 -.178E+03 0.470E-01   0.359E+00 0.326E+01 -.197E-02   0.134E-05 0.730E-06 -.380E-08
   0.239E+03 0.305E+02 0.143E+00   -.242E+03 -.365E+02 -.141E+00   0.314E+01 0.571E+01 -.250E-02   -.185E-06 0.281E-05 -.279E-07
   -.156E+02 -.542E+02 0.273E-01   0.165E+02 0.550E+02 -.271E-01   -.106E+01 -.119E+01 0.769E-04   -.223E-05 -.426E-05 0.130E-07
 -----------------------------------------------------------------------------------------------
   0.442E+02 -.296E+01 0.244E-01   0.924E-13 -.426E-13 -.555E-16   -.442E+02 0.296E+01 -.243E-01   0.162E-05 -.154E-05 0.145E-06
 
 
 POSITION                                       TOTAL-FORCE (eV/Angst)
 -----------------------------------------------------------------------------------
     34.27000      0.02277      0.00091         0.722028      0.569225      0.000398
     32.22516      1.10541     34.99858         0.018279     -0.010324      0.000154
     34.40590     32.74648      0.00263         0.168041      0.138495      0.000536
     34.16016      2.31704     34.99900         0.448027      0.791659     -0.000311
      0.29842      0.07400      0.00162        -0.476481     -0.041483     -0.000404
     31.75041     32.78816      0.00083        -0.091010     -0.293538      0.000195
     30.49910     34.95078     34.99825        -0.326053      0.047483     -0.000305
     31.71616      1.97388     34.99751        -0.142859      0.284087     -0.000318
     33.70318     33.75957      0.00150        -0.047680     -1.253818     -0.000208
     32.25638     33.73767      0.00048        -0.077392      0.345659      0.000008
     31.57798     34.90409     34.99908        -0.025034     -0.198572      0.000069
     33.60852      1.23702     34.99947        -0.169865     -0.378872      0.000187
 -----------------------------------------------------------------------------------
    total drift:                               -0.000063      0.000037      0.000028


--------------------------------------------------------------------------------------------------------



  FREE ENERGIE OF THE ION-ELECTRON SYSTEM (eV)
  ---------------------------------------------------
  free  energy   TOTEN  =       -81.58058889 eV

  energy  without entropy=      -81.58058889  energy(sigma->0) =      -81.58058889
 


--------------------------------------------------------------------------------------------------------


    POTLOK:  cpu time   61.1352: real time   61.2839


--------------------------------------------------------------------------------------------------------


 writing wavefunctions
     LOOP+:  cpu time 4450.5737: real time 4461.6791
    4ORBIT:  cpu time    0.0000: real time    0.0000

 total amount of memory used by VASP on root node 12970072. kBytes
========================================================================

   base      :      30000. kBytes
   nonl-proj :     236767. kBytes
   fftplans  :    3999886. kBytes
   grid      :    8528947. kBytes
   one-center:          8. kBytes
   wavefun   :     174464. kBytes
 
  
  
 General timing and accounting informations for this job:
 ========================================================
  
                  Total CPU time used (sec):     5337.042
                            User time (sec):     4942.606
                          System time (sec):      394.436
                         Elapsed time (sec):     5350.354
  
                   Maximum memory used (kb):    19306068.
                   Average memory used (kb):           0.
  
                          Minor page faults:     18053773
                          Major page faults:            6
                 Voluntary context switches:          792
 
 PROFILE, used timers:      14
 =============================
 
 index                 routine                    time                            calls level
----------------------------------------------------------------------------------------------
    1    total_time                         5350.356014                                1   1
    2      w1_copy                              13.102116                           9448   2
    3      fftwav_mpi                          753.259095                           3777   2
    4      fftext_mpi                            3.737775                             28   2
    5      overl                                 0.003566                           5357   2
    6      orth1                                20.073987                           1388   2
    7      lincom                                1.308073                             34   2
    8      eccp                                 30.501253                            924   2
    9      hamiltmu                            920.547576                            462   2
   10        vhamil                              154.705451                         3140   3
   11        overl1                                0.003472                         3140   3
   12        kinhamil                            443.929987                         3140   3
   13          fftext_mpi                          439.668393                       3140   4
   14      pdssyex_zheevx                        0.047890                             33   2
 
 Flat profile
 ============
 
             routine name                   CPU           calls
 ---------------------------------------------------------------
 total_time                           3607.774682           1
 fftwav_mpi                            753.259095        3777
 fftext_mpi                            443.406168        3168
 hamiltmu                              321.908666         462
 vhamil                                154.705451        3140
 eccp                                   30.501253         924
 orth1                                  20.073987        1388
 w1_copy                                13.102116        9448
 kinhamil                                4.261594        3140
 lincom                                  1.308073          34
 pdssyex_zheevx                          0.047890          33
 overl                                   0.003566        5357
 overl1                                  0.003472        3140
 ---------------------------------------------------------------
  summed up times    5350.35601401329     
 
Profiling took   0.016786  0.008633  0.003310  0.003304 seconds
Profiling took   0.015329 seconds
