 vasp.5.4.1 24Jun15 (build Jan 02 2020 16:21:29) gamma-only                     
  
 executed on           IFC15_impi date 2020.04.11  14:26:54
 running on   12 total cores
 distrk:  each k-point on   12 cores,    1 groups
 distr:  one band on NCORES_PER_BAND=  12 cores,    1 groups


--------------------------------------------------------------------------------------------------------


 INCAR:
 POTCAR:    PAW_PBE N_GW 10Apr2007                
 POTCAR:    PAW_PBE O_GW 28Sep2005                
 POTCAR:    PAW_PBE H_GW 21Apr2008                
 POTCAR:    PAW_PBE C_GW 28Sep2005                

 ----------------------------------------------------------------------------- 
|                                                                             |
|           W    W    AA    RRRRR   N    N  II  N    N   GGGG   !!!           |
|           W    W   A  A   R    R  NN   N  II  NN   N  G    G  !!!           |
|           W    W  A    A  R    R  N N  N  II  N N  N  G       !!!           |
|           W WW W  AAAAAA  RRRRR   N  N N  II  N  N N  G  GGG   !            |
|           WW  WW  A    A  R   R   N   NN  II  N   NN  G    G                |
|           W    W  A    A  R    R  N    N  II  N    N   GGGG   !!!           |
|                                                                             |
|      For optimal performance we recommend to set                            |
|        NCORE= 4 - approx SQRT( number of cores)                             |
|      NCORE specifies how many cores store one orbital (NPAR=cpu/NCORE).     |
|      This setting can  greatly improve the performance of VASP for DFT.     |
|      The default, NPAR=number of cores might be grossly inefficient         |
|      on modern multi-core architectures or massively parallel machines.     |
|      Do your own testing !!!!                                               |
|      Unfortunately you need to use the default for GW and RPA calculations. |
|      (for HF NCORE is supported but not extensively tested yet)             |
|                                                                             |
 ----------------------------------------------------------------------------- 

 POTCAR:    PAW_PBE N_GW 10Apr2007                
   VRHFIN =N: s2p3                                                              
   LEXCH  = PE                                                                  
   EATOM  =   264.5486 eV,   19.4438 Ry                                         
                                                                                
   TITEL  = PAW_PBE N_GW 10Apr2007                                              
   LULTRA =        F    use ultrasoft PP ?                                      
   IUNSCR =        0    unscreen: 0-lin 1-nonlin 2-no                           
   RPACOR =    0.000    partial core radius                                     
   POMASS =   14.001; ZVAL   =    5.000    mass and valenz                      
   RCORE  =    1.500    outmost cutoff radius                                   
   RWIGS  =    1.400; RWIGS  =    0.741    wigner-seitz radius (au A)           
   ENMAX  =  420.902; ENMIN  =  315.677 eV                                      
   ICORE  =        2    local potential                                         
   LCOR   =        T    correct aug charges                                     
   LPAW   =        T    paw PP                                                  
   EAUG   =  904.640                                                            
   DEXC   =    0.000                                                            
   RMAX   =    1.529    core radius for proj-oper                               
   RAUG   =    1.300    factor for augmentation sphere                          
   RDEP   =    1.514    radius for radial grids                                 
   RDEPT  =    1.100    core radius for aug-charge                              
                                                                                
   Atomic configuration                                                         
    4 entries                                                                   
     n  l   j            E        occ.                                          
     1  0  0.50      -384.7179   2.0000                                         
     2  0  0.50       -18.5828   2.0000                                         
     2  1  0.50        -7.0898   3.0000                                         
     3  2  1.50        -8.1635   0.0000                                         
   Description                                                                  
     l       E           TYP  RCUT    TYP  RCUT                                 
     0    -18.5828120     23  1.300                                             
     0     81.6349560     23  1.300                                             
     1     -7.0897854     23  1.500                                             
     1     81.6349560     23  1.500                                             
     2     -8.1634956      7  1.500                                             
  local pseudopotential read in
  kinetic energy density of atom read in
  atomic valenz-charges read in
  non local Contribution for L=           0  read in
    real space projection operators read in
  non local Contribution for L=           0  read in
    real space projection operators read in
  non local Contribution for L=           1  read in
    real space projection operators read in
  non local Contribution for L=           1  read in
    real space projection operators read in
    PAW grid and wavefunctions read in
 
   number of l-projection  operators is LMAX  =           4
   number of lm-projection operators is LMMAX =           8
 
 POTCAR:    PAW_PBE O_GW 28Sep2005                
   VRHFIN =O: s2p4                                                              
   LEXCH  = PE                                                                  
   EATOM  =   432.3788 eV,   31.7789 Ry                                         
                                                                                
   TITEL  = PAW_PBE O_GW 28Sep2005                                              
   LULTRA =        F    use ultrasoft PP ?                                      
   IUNSCR =        0    unscreen: 0-lin 1-nonlin 2-no                           
   RPACOR =    0.000    partial core radius                                     
   POMASS =   16.000; ZVAL   =    6.000    mass and valenz                      
   RCORE  =    1.520    outmost cutoff radius                                   
   RWIGS  =    1.550; RWIGS  =    0.820    wigner-seitz radius (au A)           
   ENMAX  =  414.635; ENMIN  =  310.976 eV                                      
   ICORE  =        2    local potential                                         
   LCOR   =        T    correct aug charges                                     
   LPAW   =        T    paw PP                                                  
   EAUG   =  605.392                                                            
   DEXC   =    0.000                                                            
   RMAX   =    1.553    core radius for proj-oper                               
   RAUG   =    1.300    factor for augmentation sphere                          
   RDEP   =    1.550    radius for radial grids                                 
   RDEPT  =    1.329    core radius for aug-charge                              
                                                                                
   Atomic configuration                                                         
    4 entries                                                                   
     n  l   j            E        occ.                                          
     1  0  0.50      -514.6923   2.0000                                         
     2  0  0.50       -23.9615   2.0000                                         
     2  1  0.50        -9.0305   4.0000                                         
     3  2  1.50        -9.5241   0.0000                                         
   Description                                                                  
     l       E           TYP  RCUT    TYP  RCUT                                 
     0    -23.9615316     23  1.200                                             
     0     81.6349560     23  1.200                                             
     1     -9.0304908     23  1.520                                             
     1     81.6349560     23  1.520                                             
     2     -9.5240782      7  1.500                                             
  local pseudopotential read in
  kinetic energy density of atom read in
  atomic valenz-charges read in
  non local Contribution for L=           0  read in
    real space projection operators read in
  non local Contribution for L=           0  read in
    real space projection operators read in
  non local Contribution for L=           1  read in
    real space projection operators read in
  non local Contribution for L=           1  read in
    real space projection operators read in
    PAW grid and wavefunctions read in
 
   number of l-projection  operators is LMAX  =           4
   number of lm-projection operators is LMMAX =           8
 
 POTCAR:    PAW_PBE H_GW 21Apr2008                
   VRHFIN =H: ultrasoft test                                                    
   LEXCH  = PE                                                                  
   EATOM  =    12.4884 eV,    0.9179 Ry                                         
                                                                                
   TITEL  = PAW_PBE H_GW 21Apr2008                                              
   LULTRA =        F    use ultrasoft PP ?                                      
   IUNSCR =        0    unscreen: 0-lin 1-nonlin 2-no                           
   RPACOR =    0.000    partial core radius                                     
   POMASS =    1.000; ZVAL   =    1.000    mass and valenz                      
   RCORE  =    1.100    outmost cutoff radius                                   
   RWIGS  =    1.100; RWIGS  =    0.582    wigner-seitz radius (au A)           
   ENMAX  =  300.000; ENMIN  =  250.000 eV                                      
   RCLOC  =    0.701    cutoff for local pot                                    
   LCOR   =        T    correct aug charges                                     
   LPAW   =        T    paw PP                                                  
   EAUG   =  500.000                                                            
   RMAX   =    1.123    core radius for proj-oper                               
   RAUG   =    1.200    factor for augmentation sphere                          
   RDEP   =    1.112    radius for radial grids                                 
   RDEPT  =    1.100    core radius for aug-charge                              
                                                                                
   Atomic configuration                                                         
    3 entries                                                                   
     n  l   j            E        occ.                                          
     1  0  0.50        -6.4927   1.0000                                         
     2  1  0.50        -3.4015   0.0000                                         
     3  2  1.50        13.6058   0.0000                                         
   Description                                                                  
     l       E           TYP  RCUT    TYP  RCUT                                 
     0     -6.4927495     23  0.950                                             
     0      6.8029130     23  0.950                                             
     1     -4.0817478     23  1.100                                             
     1    108.8466080     23  1.100                                             
     2     81.6349560     23  1.100                                             
  local pseudopotential read in
  kinetic energy density of atom read in
  atomic valenz-charges read in
  non local Contribution for L=           0  read in
    real space projection operators read in
  non local Contribution for L=           0  read in
    real space projection operators read in
  non local Contribution for L=           1  read in
    real space projection operators read in
  non local Contribution for L=           1  read in
    real space projection operators read in
  non local Contribution for L=           2  read in
    real space projection operators read in
    PAW grid and wavefunctions read in
 
   number of l-projection  operators is LMAX  =           5
   number of lm-projection operators is LMMAX =          13
 
 POTCAR:    PAW_PBE C_GW 28Sep2005                
   VRHFIN =C: s2p2                                                              
   LEXCH  = PE                                                                  
   EATOM  =   147.1560 eV,   10.8157 Ry                                         
                                                                                
   TITEL  = PAW_PBE C_GW 28Sep2005                                              
   LULTRA =        F    use ultrasoft PP ?                                      
   IUNSCR =        0    unscreen: 0-lin 1-nonlin 2-no                           
   RPACOR =    0.000    partial core radius                                     
   POMASS =   12.011; ZVAL   =    4.000    mass and valenz                      
   RCORE  =    1.500    outmost cutoff radius                                   
   RWIGS  =    1.630; RWIGS  =    0.863    wigner-seitz radius (au A)           
   ENMAX  =  413.992; ENMIN  =  310.494 eV                                      
   ICORE  =        2    local potential                                         
   LCOR   =        T    correct aug charges                                     
   LPAW   =        T    paw PP                                                  
   EAUG   =  644.873                                                            
   DEXC   =    0.000                                                            
   RMAX   =    1.529    core radius for proj-oper                               
   RAUG   =    1.300    factor for augmentation sphere                          
   RDEP   =    1.501    radius for radial grids                                 
   RDEPT  =    1.300    core radius for aug-charge                              
                                                                                
   Atomic configuration                                                         
    4 entries                                                                   
     n  l   j            E        occ.                                          
     1  0  0.50      -273.3789   2.0000                                         
     2  0  0.50       -13.7508   2.0000                                         
     2  1  0.50        -5.2854   2.0000                                         
     3  2  1.50        -5.4423   0.0000                                         
   Description                                                                  
     l       E           TYP  RCUT    TYP  RCUT                                 
     0    -13.7508457     23  1.200                                             
     0     95.2407820     23  1.200                                             
     1     -5.2854382     23  1.500                                             
     1    108.8466080     23  1.500                                             
     2     -5.4423304      7  1.500                                             
  local pseudopotential read in
  kinetic energy density of atom read in
  atomic valenz-charges read in
  non local Contribution for L=           0  read in
    real space projection operators read in
  non local Contribution for L=           0  read in
    real space projection operators read in
  non local Contribution for L=           1  read in
    real space projection operators read in
  non local Contribution for L=           1  read in
    real space projection operators read in
    PAW grid and wavefunctions read in
 
   number of l-projection  operators is LMAX  =           4
   number of lm-projection operators is LMMAX =           8
 
  PAW_PBE N_GW 10Apr2007                :
 energy of atom  1       EATOM= -264.5486
 kinetic energy error for atom=    0.0003 (will be added to EATOM!!)
  PAW_PBE O_GW 28Sep2005                :
 energy of atom  2       EATOM= -432.3788
 kinetic energy error for atom=    0.0005 (will be added to EATOM!!)
  PAW_PBE H_GW 21Apr2008                :
 energy of atom  3       EATOM=  -12.4884
 kinetic energy error for atom=    0.0000 (will be added to EATOM!!)
  PAW_PBE C_GW 28Sep2005                :
 energy of atom  4       EATOM= -147.1560
 kinetic energy error for atom=    0.0002 (will be added to EATOM!!)
 
 
 POSCAR: N O H C                                 
  positions in cartesian coordinates
  No initial velocities read in
 exchange correlation table for  LEXCH =        8
   RHO(1)=    0.500       N(1)  =     2000
   RHO(2)=  100.500       N(2)  =     4000
 


--------------------------------------------------------------------------------------------------------


 ion  position               nearest neighbor table
   1  0.981  0.003  0.986-   4 1.00   3 1.02   8 1.35
   2  0.979  0.062  0.013-   8 1.23
   3  0.010  0.001  0.987-   1 1.02
   4  0.966  0.981  0.975-   1 1.00
   5  0.908  0.036  0.026-   9 1.09
   6  0.908  0.007  0.984-   9 1.09
   7  0.910  0.058  0.980-   9 1.09
   8  0.963  0.034  0.999-   2 1.23   1 1.35   9 1.51
   9  0.920  0.033  0.997-   6 1.09   7 1.09   5 1.09   8 1.51
 
  LATTYP: Found a simple cubic cell.
 ALAT       =    35.0000000000
  
  Lattice vectors:
  
 A1 = (  35.0000000000,   0.0000000000,   0.0000000000)
 A2 = (   0.0000000000,  35.0000000000,   0.0000000000)
 A3 = (   0.0000000000,   0.0000000000,  35.0000000000)


Analysis of symmetry for initial positions (statically):
=====================================================================
 Subroutine PRICEL returns:
 Original cell was already a primitive cell.
 

 Routine SETGRP: Setting up the symmetry group for a 
 simple cubic supercell.


 Subroutine GETGRP returns: Found  1 space group operations
 (whereof  1 operations were pure point group operations)
 out of a pool of 48 trial point group operations.


The static configuration has the point symmetry C_1 .


Analysis of symmetry for dynamics (positions and initial velocities):
=====================================================================
 Subroutine PRICEL returns:
 Original cell was already a primitive cell.
 

 Routine SETGRP: Setting up the symmetry group for a 
 simple cubic supercell.


 Subroutine GETGRP returns: Found  1 space group operations
 (whereof  1 operations were pure point group operations)
 out of a pool of 48 trial point group operations.


The dynamic configuration has the point symmetry C_1 .
 
 
 KPOINTS: automatic mesh                          

Automatic generation of k-mesh.
Space group operators:
 irot       det(A)        alpha          n_x          n_y          n_z        tau_x        tau_y        tau_z
    1     1.000000     0.000000     1.000000     0.000000     0.000000     0.000000     0.000000     0.000000
 
 Subroutine IBZKPT returns following result:
 ===========================================
 
 Found      1 irreducible k-points:
 
 Following reciprocal coordinates:
            Coordinates               Weight
  0.000000  0.000000  0.000000      1.000000
 
 Following cartesian coordinates:
            Coordinates               Weight
  0.000000  0.000000  0.000000      1.000000
 


--------------------------------------------------------------------------------------------------------




 Dimension of arrays:
   k-points           NKPTS =      1   k-points in BZ     NKDIM =      1   number of bands    NBANDS=     17
   number of dos      NEDOS =    301   number of ions     NIONS =      9
   non local maximal  LDIM  =      5   non local SUM 2l+1 LMDIM =     13
   total plane-waves  NPLWV = ******
   max r-space proj   IRMAX =      1   max aug-charges    IRDMAX=  33660
   dimension x,y,z NGX =   480 NGY =  480 NGZ =  480
   dimension x,y,z NGXF=   960 NGYF=  960 NGZF=  960
   support grid    NGXF=   960 NGYF=  960 NGZF=  960
   ions per type =               1   1   5   2
 NGX,Y,Z   is equivalent  to a cutoff of  22.80, 22.80, 22.80 a.u.
 NGXF,Y,Z  is equivalent  to a cutoff of  45.60, 45.60, 45.60 a.u.


 I would recommend the setting:
   dimension x,y,z NGX =   457 NGY =  457 NGZ =  457
 SYSTEM =  C                                       
 POSCAR =  N O H C                                 

 Startparameter for this run:
   NWRITE =      2    write-flag & timer
   PREC   = acc       normal or accurate (medium, high low for compatibility)
   ISTART =      0    job   : 0-new  1-cont  2-samecut
   ICHARG =      2    charge: 1-file 2-atom 10-const
   ISPIN  =      1    spin polarized calculation?
   LNONCOLLINEAR =      F non collinear calculations
   LSORBIT =      F    spin-orbit coupling
   INIWAV =      1    electr: 0-lowe 1-rand  2-diag
   LASPH  =      T    aspherical Exc in radial PAW
   METAGGA=      F    non-selfconsistent MetaGGA calc.

 Electronic Relaxation 1
   ENCUT  = 1600.0 eV 117.60 Ry   10.84 a.u. 114.15114.15114.15*2*pi/ulx,y,z
   ENINI  = 1600.0     initial cutoff
   ENAUG  =  904.6 eV  augmentation charge cutoff
   NELM   =     60;   NELMIN=  2; NELMDL= -5     # of ELM steps 
   EDIFF  = 0.1E-06   stopping-criterion for ELM
   LREAL  =      F    real-space projection
   NLSPLINE    = F    spline interpolate recip. space projectors
   LCOMPAT=      F    compatible to vasp.4.4
   GGA_COMPAT  = T    GGA compatible to vasp.4.4-vasp.4.6
   LMAXPAW     = -100 max onsite density
   LMAXMIX     =    2 max onsite mixed and CHGCAR
   VOSKOWN=      0    Vosko Wilk Nusair interpolation
   ROPT   =    0.00000   0.00000   0.00000   0.00000
 Ionic relaxation
   EDIFFG = 0.1E-05   stopping-criterion for IOM
   NSW    =      0    number of steps for IOM
   NBLOCK =      1;   KBLOCK =      1    inner block; outer block 
   IBRION =     -1    ionic relax: 0-MD 1-quasi-New 2-CG
   NFREE  =      0    steps in history (QN), initial steepest desc. (CG)
   ISIF   =      2    stress and relaxation
   IWAVPR =     10    prediction:  0-non 1-charg 2-wave 3-comb
   ISYM   =      2    0-nonsym 1-usesym 2-fastsym
   LCORR  =      T    Harris-Foulkes like correction to forces

   POTIM  = 0.5000    time-step for ionic-motion
   TEIN   =    0.0    initial temperature
   TEBEG  =    0.0;   TEEND  =   0.0 temperature during run
   SMASS  =  -3.00    Nose mass-parameter (am)
   estimated Nose-frequenzy (Omega)   =  0.10E-29 period in steps =****** mass=  -0.280E-25a.u.
   SCALEE = 1.0000    scale energy and forces
   NPACO  =    256;   APACO  = 16.0  distance and # of slots for P.C.
   PSTRESS=    0.0 pullay stress

  Mass of Ions in am
   POMASS =  14.00 16.00  1.00 12.01
  Ionic Valenz
   ZVAL   =   5.00  6.00  1.00  4.00
  Atomic Wigner-Seitz radii
   RWIGS  =  -1.00 -1.00 -1.00 -1.00
  virtual crystal weights 
   VCA    =   1.00  1.00  1.00  1.00
   NELECT =      24.0000    total number of electrons
   NUPDOWN=      -1.0000    fix difference up-down

 DOS related values:
   EMIN   =  10.00;   EMAX   =-10.00  energy-range for DOS
   EFERMI =   0.00
   ISMEAR =     0;   SIGMA  =   0.01  broadening in eV -4-tet -1-fermi 0-gaus

 Electronic relaxation 2 (details)
   IALGO  =     38    algorithm
   LDIAG  =      T    sub-space diagonalisation (order eigenvalues)
   LSUBROT=      F    optimize rotation matrix (better conditioning)
   TURBO    =      0    0=normal 1=particle mesh
   IRESTART =      0    0=no restart 2=restart with 2 vectors
   NREBOOT  =      0    no. of reboots
   NMIN     =      0    reboot dimension
   EREF     =   0.00    reference energy to select bands
   IMIX   =      4    mixing-type and parameters
     AMIX     =   0.40;   BMIX     =  1.00
     AMIX_MAG =   1.60;   BMIX_MAG =  1.00
     AMIN     =   0.10
     WC   =   100.;   INIMIX=   1;  MIXPRE=   1;  MAXMIX= -45

 Intra band minimization:
   WEIMIN = 0.0000     energy-eigenvalue tresh-hold
   EBREAK =  0.15E-08  absolut break condition
   DEPER  =   0.30     relativ break condition  

   TIME   =   0.40     timestep for ELM

  volume/ion in A,a.u.               =    4763.89     32148.31
  Fermi-wavevector in a.u.,A,eV,Ry     =   0.134920  0.254962  0.247673  0.018203
  Thomas-Fermi vector in A             =   0.783236
 
 Write flags
   LWAVE  =      T    write WAVECAR
   LCHARG =      T    write CHGCAR
   LVTOT  =      F    write LOCPOT, total local potential
   LVHAR  =      F    write LOCPOT, Hartree potential only
   LELF   =      F    write electronic localiz. function (ELF)
   LORBIT =      0    0 simple, 1 ext, 2 COOP (PROOUT)


 Dipole corrections
   LMONO  =      F    monopole corrections only (constant potential shift)
   LDIPOL =      F    correct potential (dipole corrections)
   IDIPOL =      0    1-x, 2-y, 3-z, 4-all directions 
   EPSILON=  1.0000000 bulk dielectric constant

 Exchange correlation treatment:
   GGA     =    --    GGA type
   LEXCH   =     8    internal setting for exchange type
   VOSKOWN=      0    Vosko Wilk Nusair interpolation
   LHFCALC =     F    Hartree Fock is set to
   LHFONE  =     F    Hartree Fock one center treatment
   AEXX    =    0.0000 exact exchange contribution

 Linear response parameters
   LEPSILON=     F    determine dielectric tensor
   LRPA    =     F    only Hartree local field effects (RPA)
   LNABLA  =     F    use nabla operator in PAW spheres
   LVEL    =     F    velocity operator in full k-point grid
   LINTERFAST=   F  fast interpolation
   KINTER  =     0    interpolate to denser k-point grid
   CSHIFT  =0.1000    complex shift for real part using Kramers Kronig
   OMEGAMAX=  -1.0    maximum frequency
   DEG_THRESHOLD= 0.2000000E-02 threshold for treating states as degnerate
   RTIME   =    0.100 relaxation time in fs

 Orbital magnetization related:
   ORBITALMAG=     F  switch on orbital magnetization
   LCHIMAG   =     F  perturbation theory with respect to B field
   DQ        =  0.001000  dq finite difference perturbation B field



--------------------------------------------------------------------------------------------------------


 Static calculation
 charge density and potential will be updated during run
 non-spin polarized calculation
 Variant of blocked Davidson
 Davidson routine will perform the subspace rotation
 perform sub-space diagonalisation
    after iterative eigenvector-optimisation
 modified Broyden-mixing scheme, WC =      100.0
 initial mixing is a Kerker type mixing with AMIX =  0.4000 and BMIX =      1.0000
 Hartree-type preconditioning will be used
 using additional bands            5
 reciprocal scheme for non local part
 calculate Harris-corrections to forces 
   (improved forces if not selfconsistent)
 use gradient corrections 
 use of overlap-Matrix (Vanderbilt PP)
 Gauss-broadening in eV      SIGMA  =   0.01


--------------------------------------------------------------------------------------------------------


  energy-cutoff  :     1600.00
  volume of cell :    42875.00
      direct lattice vectors                 reciprocal lattice vectors
    35.000000000  0.000000000  0.000000000     0.028571429  0.000000000  0.000000000
     0.000000000 35.000000000  0.000000000     0.000000000  0.028571429  0.000000000
     0.000000000  0.000000000 35.000000000     0.000000000  0.000000000  0.028571429

  length of vectors
    35.000000000 35.000000000 35.000000000     0.028571429  0.028571429  0.028571429


 
 k-points in units of 2pi/SCALE and weight: automatic mesh                          
   0.00000000  0.00000000  0.00000000       1.000
 
 k-points in reciprocal lattice and weights: automatic mesh                          
   0.00000000  0.00000000  0.00000000       1.000
 
 position of ions in fractional coordinates (direct lattice) 
   0.98098225  0.00271585  0.98594301
   0.97927713  0.06157565  0.01293467
   0.01013093  0.00146995  0.98687688
   0.96618208  0.98075429  0.97512125
   0.90798203  0.03607261  0.02551664
   0.90830207  0.00710383  0.98394571
   0.91019548  0.05761702  0.98031734
   0.96257858  0.03371932  0.99928085
   0.91952230  0.03302853  0.99683983
 
 position of ions in cartesian coordinates  (Angst):
  34.33437884  0.09505470 34.50800551
  34.27469956  2.15514767  0.45271335
   0.35458266  0.05144817 34.54069078
  33.81637296 34.32640031 34.12924390
  31.77937105  1.26254146  0.89308239
  31.79057246  0.24863402 34.43809991
  31.85684187  2.01659563 34.31110688
  33.69025026  1.18017617 34.97482966
  32.18328066  1.15599865 34.88939402
 


--------------------------------------------------------------------------------------------------------


 use parallel FFT for wavefunctions z direction half grid
 k-point  1 :   0.0000 0.0000 0.0000  plane waves: 3115599

 maximum and minimum number of plane-waves per node :    259651   259618

 maximum number of plane-waves:   3115599
 maximum index in each direction: 
   IXMAX=  114   IYMAX=  114   IZMAX=  114
   IXMIN= -114   IYMIN= -114   IZMIN=    0

 NGX is ok and might be reduce to 458
 NGY is ok and might be reduce to 458
 NGZ is ok and might be reduce to 458

 parallel 3D FFT for wavefunctions:
    minimum data exchange during FFTs selected (reduces bandwidth)
 parallel 3D FFT for charge:
    minimum data exchange during FFTs selected (reduces bandwidth)


 total amount of memory used by VASP on root node  8598583. kBytes
========================================================================

   base      :      30000. kBytes
   nonl-proj :     145398. kBytes
   fftplans  :    2666593. kBytes
   grid      :    5685964. kBytes
   one-center:          4. kBytes
   wavefun   :      70624. kBytes
 
     INWAV:  cpu time    0.0000: real time    0.0000
 Broyden mixing: mesh for mixing (old mesh)
   NGX =229   NGY =229   NGZ =229
  (NGX  =960   NGY  =960   NGZ  =960)
  gives a total of ****** points

 initial charge density was supplied:
 charge density of overlapping atoms calculated
 number of electron      24.0000000 magnetization 
 keeping initial charge density in first step


--------------------------------------------------------------------------------------------------------


 Maximum index for augmentation-charges         2622 (set IRDMAX)


--------------------------------------------------------------------------------------------------------


 First call to EWALD:  gamma=   0.051
 Maximum number of real-space cells 3x 3x 3
 Maximum number of reciprocal cells 3x 3x 3

 FEWALD executed in parallel
    FEWALD:  cpu time    0.0015: real time    0.0015


----------------------------------------- Iteration    1(   1)  ---------------------------------------


    POTLOK:  cpu time   35.1097: real time   35.2062
    SETDIJ:  cpu time    0.1280: real time    0.1283
     EDDAV:  cpu time   25.5763: real time   25.6468
       DOS:  cpu time    0.0000: real time    0.0000
    --------------------------------------------
      LOOP:  cpu time   60.8159: real time   60.9849

 eigenvalue-minimisations  :    50
 total energy-change (2. order) : 0.2038450E+03  (-0.5007929E+03)
 number of electron      24.0000000 magnetization 
 augmentation part       24.0000000 magnetization 

 Free energy of the ion-electron system (eV)
  ---------------------------------------------------
  alpha Z        PSCENC =         0.05478241
  Ewald energy   TEWEN  =      1528.55424519
  -Hartree energ DENC   =     -2293.66284968
  -exchange      EXHF   =         0.00000000
  -V(xc)+E(xc)   XCENC  =        86.68307647
  PAW double counting   =       777.93659011     -783.36929086
  entropy T*S    EENTRO =        -0.00000000
  eigenvalues    EBANDS =      -166.03160739
  atomic energy  EATOM  =      1053.68003169
  Solvation  Ediel_sol  =         0.00000000
  ---------------------------------------------------
  free energy    TOTEN  =       203.84497793 eV

  energy without entropy =      203.84497793  energy(sigma->0) =      203.84497793


--------------------------------------------------------------------------------------------------------




----------------------------------------- Iteration    1(   2)  ---------------------------------------


     EDDAV:  cpu time   31.5663: real time   31.6533
       DOS:  cpu time    0.0000: real time    0.0000
    --------------------------------------------
      LOOP:  cpu time   31.5679: real time   31.6579

 eigenvalue-minimisations  :    66
 total energy-change (2. order) :-0.1393644E+03  (-0.1391558E+03)
 number of electron      24.0000000 magnetization 
 augmentation part       24.0000000 magnetization 

 Free energy of the ion-electron system (eV)
  ---------------------------------------------------
  alpha Z        PSCENC =         0.05478241
  Ewald energy   TEWEN  =      1528.55424519
  -Hartree energ DENC   =     -2293.66284968
  -exchange      EXHF   =         0.00000000
  -V(xc)+E(xc)   XCENC  =        86.68307647
  PAW double counting   =       777.93659011     -783.36929086
  entropy T*S    EENTRO =        -0.00000000
  eigenvalues    EBANDS =      -305.39597116
  atomic energy  EATOM  =      1053.68003169
  Solvation  Ediel_sol  =         0.00000000
  ---------------------------------------------------
  free energy    TOTEN  =        64.48061416 eV

  energy without entropy =       64.48061416  energy(sigma->0) =       64.48061416


--------------------------------------------------------------------------------------------------------




----------------------------------------- Iteration    1(   3)  ---------------------------------------


     EDDAV:  cpu time   26.2461: real time   26.3183
       DOS:  cpu time    0.0000: real time    0.0000
    --------------------------------------------
      LOOP:  cpu time   26.2480: real time   26.3228

 eigenvalue-minimisations  :    52
 total energy-change (2. order) :-0.9326938E+02  (-0.9318494E+02)
 number of electron      24.0000000 magnetization 
 augmentation part       24.0000000 magnetization 

 Free energy of the ion-electron system (eV)
  ---------------------------------------------------
  alpha Z        PSCENC =         0.05478241
  Ewald energy   TEWEN  =      1528.55424519
  -Hartree energ DENC   =     -2293.66284968
  -exchange      EXHF   =         0.00000000
  -V(xc)+E(xc)   XCENC  =        86.68307647
  PAW double counting   =       777.93659011     -783.36929086
  entropy T*S    EENTRO =        -0.00000000
  eigenvalues    EBANDS =      -398.66535567
  atomic energy  EATOM  =      1053.68003169
  Solvation  Ediel_sol  =         0.00000000
  ---------------------------------------------------
  free energy    TOTEN  =       -28.78877034 eV

  energy without entropy =      -28.78877034  energy(sigma->0) =      -28.78877034


--------------------------------------------------------------------------------------------------------




----------------------------------------- Iteration    1(   4)  ---------------------------------------


     EDDAV:  cpu time   20.1183: real time   20.1738
       DOS:  cpu time    0.0000: real time    0.0000
    --------------------------------------------
      LOOP:  cpu time   20.1208: real time   20.1786

 eigenvalue-minimisations  :    36
 total energy-change (2. order) :-0.2778646E+02  (-0.2778447E+02)
 number of electron      24.0000000 magnetization 
 augmentation part       24.0000000 magnetization 

 Free energy of the ion-electron system (eV)
  ---------------------------------------------------
  alpha Z        PSCENC =         0.05478241
  Ewald energy   TEWEN  =      1528.55424519
  -Hartree energ DENC   =     -2293.66284968
  -exchange      EXHF   =         0.00000000
  -V(xc)+E(xc)   XCENC  =        86.68307647
  PAW double counting   =       777.93659011     -783.36929086
  entropy T*S    EENTRO =        -0.00000000
  eigenvalues    EBANDS =      -426.45181435
  atomic energy  EATOM  =      1053.68003169
  Solvation  Ediel_sol  =         0.00000000
  ---------------------------------------------------
  free energy    TOTEN  =       -56.57522902 eV

  energy without entropy =      -56.57522902  energy(sigma->0) =      -56.57522902


--------------------------------------------------------------------------------------------------------




----------------------------------------- Iteration    1(   5)  ---------------------------------------


     EDDAV:  cpu time   29.3682: real time   29.4489
       DOS:  cpu time    0.0000: real time    0.0000
    CHARGE:  cpu time    4.5796: real time    4.5923
    MIXING:  cpu time    0.9507: real time    0.9534
    --------------------------------------------
      LOOP:  cpu time   34.9012: real time   35.0000

 eigenvalue-minimisations  :    60
 total energy-change (2. order) :-0.1607505E+01  (-0.1606575E+01)
 number of electron      23.9999999 magnetization 
 augmentation part        1.1942561 magnetization 

 Broyden mixing:
  rms(total) = 0.12867E+01    rms(broyden)= 0.12867E+01
  rms(prec ) = 0.13302E+01
  weight for this iteration     100.00

 Free energy of the ion-electron system (eV)
  ---------------------------------------------------
  alpha Z        PSCENC =         0.05478241
  Ewald energy   TEWEN  =      1528.55424519
  -Hartree energ DENC   =     -2293.66284968
  -exchange      EXHF   =         0.00000000
  -V(xc)+E(xc)   XCENC  =        86.68307647
  PAW double counting   =       777.93659011     -783.36929086
  entropy T*S    EENTRO =        -0.00000000
  eigenvalues    EBANDS =      -428.05931955
  atomic energy  EATOM  =      1053.68003169
  Solvation  Ediel_sol  =         0.00000000
  ---------------------------------------------------
  free energy    TOTEN  =       -58.18273423 eV

  energy without entropy =      -58.18273423  energy(sigma->0) =      -58.18273423


--------------------------------------------------------------------------------------------------------




----------------------------------------- Iteration    1(   6)  ---------------------------------------


    POTLOK:  cpu time   34.4012: real time   34.4953
    SETDIJ:  cpu time    0.1358: real time    0.1362
     EDDAV:  cpu time   29.3630: real time   29.4441
       DOS:  cpu time    0.0000: real time    0.0000
    CHARGE:  cpu time    4.4712: real time    4.4833
    MIXING:  cpu time    0.9933: real time    0.9961
    --------------------------------------------
      LOOP:  cpu time   69.3664: real time   69.5596

 eigenvalue-minimisations  :    60
 total energy-change (2. order) : 0.5025297E+01  (-0.1595860E+01)
 number of electron      24.0000000 magnetization 
 augmentation part        0.9617451 magnetization 

 Broyden mixing:
  rms(total) = 0.54680E+00    rms(broyden)= 0.54680E+00
  rms(prec ) = 0.56287E+00
  weight for this iteration     100.00

 eigenvalues of (default mixing * dielectric matrix)
  average eigenvalue GAMMA=   1.1066
  1.1066

 Free energy of the ion-electron system (eV)
  ---------------------------------------------------
  alpha Z        PSCENC =         0.05478241
  Ewald energy   TEWEN  =      1528.55424519
  -Hartree energ DENC   =     -2349.05803865
  -exchange      EXHF   =         0.00000000
  -V(xc)+E(xc)   XCENC  =        89.60914268
  PAW double counting   =      1012.51717848    -1018.44748118
  entropy T*S    EENTRO =        -0.00000000
  eigenvalues    EBANDS =      -370.06729822
  atomic energy  EATOM  =      1053.68003169
  Solvation  Ediel_sol  =         0.00000000
  ---------------------------------------------------
  free energy    TOTEN  =       -53.15743760 eV

  energy without entropy =      -53.15743760  energy(sigma->0) =      -53.15743760


--------------------------------------------------------------------------------------------------------




----------------------------------------- Iteration    1(   7)  ---------------------------------------


    POTLOK:  cpu time   34.4597: real time   34.5543
    SETDIJ:  cpu time    0.1391: real time    0.1394
     EDDAV:  cpu time   28.9871: real time   29.0670
       DOS:  cpu time    0.0000: real time    0.0000
    CHARGE:  cpu time    4.4668: real time    4.4790
    MIXING:  cpu time    1.0283: real time    1.0311
    --------------------------------------------
      LOOP:  cpu time   69.0827: real time   69.2748

 eigenvalue-minimisations  :    59
 total energy-change (2. order) : 0.7220761E+00  (-0.1298125E+00)
 number of electron      24.0000000 magnetization 
 augmentation part        0.9540121 magnetization 

 Broyden mixing:
  rms(total) = 0.30247E+00    rms(broyden)= 0.30247E+00
  rms(prec ) = 0.31120E+00
  weight for this iteration     100.00

 eigenvalues of (default mixing * dielectric matrix)
  average eigenvalue GAMMA=   1.5030
  1.0737  1.9323

 Free energy of the ion-electron system (eV)
  ---------------------------------------------------
  alpha Z        PSCENC =         0.05478241
  Ewald energy   TEWEN  =      1528.55424519
  -Hartree energ DENC   =     -2371.05194136
  -exchange      EXHF   =         0.00000000
  -V(xc)+E(xc)   XCENC  =        90.69492430
  PAW double counting   =      1126.43251544    -1132.52188172
  entropy T*S    EENTRO =        -0.00000000
  eigenvalues    EBANDS =      -348.27803745
  atomic energy  EATOM  =      1053.68003169
  Solvation  Ediel_sol  =         0.00000000
  ---------------------------------------------------
  free energy    TOTEN  =       -52.43536151 eV

  energy without entropy =      -52.43536151  energy(sigma->0) =      -52.43536151


--------------------------------------------------------------------------------------------------------




----------------------------------------- Iteration    1(   8)  ---------------------------------------


    POTLOK:  cpu time   34.4951: real time   34.5898
    SETDIJ:  cpu time    0.1248: real time    0.1251
     EDDAV:  cpu time   22.7908: real time   22.8537
       DOS:  cpu time    0.0000: real time    0.0000
    CHARGE:  cpu time    4.4604: real time    4.4725
    MIXING:  cpu time    1.0721: real time    1.0753
    --------------------------------------------
      LOOP:  cpu time   62.9451: real time   63.1208

 eigenvalue-minimisations  :    43
 total energy-change (2. order) : 0.2920438E+00  (-0.4770813E-01)
 number of electron      24.0000000 magnetization 
 augmentation part        0.9337938 magnetization 

 Broyden mixing:
  rms(total) = 0.89842E-01    rms(broyden)= 0.89842E-01
  rms(prec ) = 0.94829E-01
  weight for this iteration     100.00

 eigenvalues of (default mixing * dielectric matrix)
  average eigenvalue GAMMA=   1.4608
  2.2366  0.8804  1.2655

 Free energy of the ion-electron system (eV)
  ---------------------------------------------------
  alpha Z        PSCENC =         0.05478241
  Ewald energy   TEWEN  =      1528.55424519
  -Hartree energ DENC   =     -2389.56186668
  -exchange      EXHF   =         0.00000000
  -V(xc)+E(xc)   XCENC  =        91.69898590
  PAW double counting   =      1220.88217165    -1227.14565732
  entropy T*S    EENTRO =        -0.00000000
  eigenvalues    EBANDS =      -330.30601056
  atomic energy  EATOM  =      1053.68003169
  Solvation  Ediel_sol  =         0.00000000
  ---------------------------------------------------
  free energy    TOTEN  =       -52.14331773 eV

  energy without entropy =      -52.14331773  energy(sigma->0) =      -52.14331773


--------------------------------------------------------------------------------------------------------




----------------------------------------- Iteration    1(   9)  ---------------------------------------


    POTLOK:  cpu time   34.5020: real time   34.5964
    SETDIJ:  cpu time    0.1298: real time    0.1302
     EDDAV:  cpu time   29.3635: real time   29.4446
       DOS:  cpu time    0.0000: real time    0.0000
    CHARGE:  cpu time    4.4682: real time    4.4804
    MIXING:  cpu time    1.0892: real time    1.0921
    --------------------------------------------
      LOOP:  cpu time   69.5546: real time   69.7480

 eigenvalue-minimisations  :    60
 total energy-change (2. order) : 0.3291318E-01  (-0.4318085E-02)
 number of electron      24.0000000 magnetization 
 augmentation part        0.9376648 magnetization 

 Broyden mixing:
  rms(total) = 0.34740E-01    rms(broyden)= 0.34740E-01
  rms(prec ) = 0.40182E-01
  weight for this iteration     100.00

 eigenvalues of (default mixing * dielectric matrix)
  average eigenvalue GAMMA=   1.5395
  2.1856  1.9712  0.9126  1.0886

 Free energy of the ion-electron system (eV)
  ---------------------------------------------------
  alpha Z        PSCENC =         0.05478241
  Ewald energy   TEWEN  =      1528.55424519
  -Hartree energ DENC   =     -2394.00978704
  -exchange      EXHF   =         0.00000000
  -V(xc)+E(xc)   XCENC  =        91.89655719
  PAW double counting   =      1234.74246598    -1240.99559833
  entropy T*S    EENTRO =        -0.00000000
  eigenvalues    EBANDS =      -326.03310164
  atomic energy  EATOM  =      1053.68003169
  Solvation  Ediel_sol  =         0.00000000
  ---------------------------------------------------
  free energy    TOTEN  =       -52.11040455 eV

  energy without entropy =      -52.11040455  energy(sigma->0) =      -52.11040455


--------------------------------------------------------------------------------------------------------




----------------------------------------- Iteration    1(  10)  ---------------------------------------


    POTLOK:  cpu time   34.5586: real time   34.6534
    SETDIJ:  cpu time    0.1246: real time    0.1249
     EDDAV:  cpu time   22.7795: real time   22.8423
       DOS:  cpu time    0.0000: real time    0.0000
    CHARGE:  cpu time    4.4696: real time    4.4817
    MIXING:  cpu time    1.1351: real time    1.1384
    --------------------------------------------
      LOOP:  cpu time   63.0691: real time   63.2451

 eigenvalue-minimisations  :    43
 total energy-change (2. order) : 0.7080614E-02  (-0.9006651E-03)
 number of electron      24.0000000 magnetization 
 augmentation part        0.9386172 magnetization 

 Broyden mixing:
  rms(total) = 0.15528E-01    rms(broyden)= 0.15528E-01
  rms(prec ) = 0.21130E-01
  weight for this iteration     100.00

 eigenvalues of (default mixing * dielectric matrix)
  average eigenvalue GAMMA=   1.5410
  2.1927  2.1927  0.9048  1.2073  1.2073

 Free energy of the ion-electron system (eV)
  ---------------------------------------------------
  alpha Z        PSCENC =         0.05478241
  Ewald energy   TEWEN  =      1528.55424519
  -Hartree energ DENC   =     -2396.68743020
  -exchange      EXHF   =         0.00000000
  -V(xc)+E(xc)   XCENC  =        91.95325939
  PAW double counting   =      1232.40389805    -1238.63596320
  entropy T*S    EENTRO =        -0.00000000
  eigenvalues    EBANDS =      -323.42614726
  atomic energy  EATOM  =      1053.68003169
  Solvation  Ediel_sol  =         0.00000000
  ---------------------------------------------------
  free energy    TOTEN  =       -52.10332393 eV

  energy without entropy =      -52.10332393  energy(sigma->0) =      -52.10332393


--------------------------------------------------------------------------------------------------------




----------------------------------------- Iteration    1(  11)  ---------------------------------------


    POTLOK:  cpu time   34.5370: real time   34.6314
    SETDIJ:  cpu time    0.1376: real time    0.1380
     EDDAV:  cpu time   23.1956: real time   23.2598
       DOS:  cpu time    0.0000: real time    0.0000
    CHARGE:  cpu time    4.4783: real time    4.4905
    MIXING:  cpu time    1.1597: real time    1.1628
    --------------------------------------------
      LOOP:  cpu time   63.5100: real time   63.6875

 eigenvalue-minimisations  :    44
 total energy-change (2. order) :-0.1414818E-02  (-0.6054590E-03)
 number of electron      24.0000000 magnetization 
 augmentation part        0.9369958 magnetization 

 Broyden mixing:
  rms(total) = 0.10611E-01    rms(broyden)= 0.10611E-01
  rms(prec ) = 0.14625E-01
  weight for this iteration     100.00

 eigenvalues of (default mixing * dielectric matrix)
  average eigenvalue GAMMA=   1.6387
  3.0944  2.3663  1.3458  0.9936  1.0160  1.0160

 Free energy of the ion-electron system (eV)
  ---------------------------------------------------
  alpha Z        PSCENC =         0.05478241
  Ewald energy   TEWEN  =      1528.55424519
  -Hartree energ DENC   =     -2399.08874008
  -exchange      EXHF   =         0.00000000
  -V(xc)+E(xc)   XCENC  =        91.99451545
  PAW double counting   =      1231.44662172    -1237.67758705
  entropy T*S    EENTRO =        -0.00000000
  eigenvalues    EBANDS =      -321.06860807
  atomic energy  EATOM  =      1053.68003169
  Solvation  Ediel_sol  =         0.00000000
  ---------------------------------------------------
  free energy    TOTEN  =       -52.10473875 eV

  energy without entropy =      -52.10473875  energy(sigma->0) =      -52.10473875


--------------------------------------------------------------------------------------------------------




----------------------------------------- Iteration    1(  12)  ---------------------------------------


    POTLOK:  cpu time   34.6142: real time   34.7091
    SETDIJ:  cpu time    0.1310: real time    0.1313
     EDDAV:  cpu time   25.8535: real time   25.9247
       DOS:  cpu time    0.0000: real time    0.0000
    CHARGE:  cpu time    4.4655: real time    4.4777
    MIXING:  cpu time    1.2153: real time    1.2188
    --------------------------------------------
      LOOP:  cpu time   66.2814: real time   66.4661

 eigenvalue-minimisations  :    51
 total energy-change (2. order) :-0.3808540E-02  (-0.3331756E-03)
 number of electron      24.0000000 magnetization 
 augmentation part        0.9375753 magnetization 

 Broyden mixing:
  rms(total) = 0.57496E-02    rms(broyden)= 0.57496E-02
  rms(prec ) = 0.84853E-02
  weight for this iteration     100.00

 eigenvalues of (default mixing * dielectric matrix)
  average eigenvalue GAMMA=   1.7881
  3.9574  2.4661  1.5570  1.5570  0.9158  0.9158  1.1475

 Free energy of the ion-electron system (eV)
  ---------------------------------------------------
  alpha Z        PSCENC =         0.05478241
  Ewald energy   TEWEN  =      1528.55424519
  -Hartree energ DENC   =     -2401.33104484
  -exchange      EXHF   =         0.00000000
  -V(xc)+E(xc)   XCENC  =        92.02639766
  PAW double counting   =      1229.99873715    -1236.22032447
  entropy T*S    EENTRO =        -0.00000000
  eigenvalues    EBANDS =      -318.87137208
  atomic energy  EATOM  =      1053.68003169
  Solvation  Ediel_sol  =         0.00000000
  ---------------------------------------------------
  free energy    TOTEN  =       -52.10854729 eV

  energy without entropy =      -52.10854729  energy(sigma->0) =      -52.10854729


--------------------------------------------------------------------------------------------------------




----------------------------------------- Iteration    1(  13)  ---------------------------------------


    POTLOK:  cpu time   34.5800: real time   34.6746
    SETDIJ:  cpu time    0.1326: real time    0.1329
     EDDAV:  cpu time   26.2711: real time   26.3437
       DOS:  cpu time    0.0000: real time    0.0000
    CHARGE:  cpu time    4.4653: real time    4.4774
    MIXING:  cpu time    1.2555: real time    1.2592
    --------------------------------------------
      LOOP:  cpu time   66.7063: real time   66.8925

 eigenvalue-minimisations  :    52
 total energy-change (2. order) :-0.7935699E-02  (-0.2228995E-03)
 number of electron      24.0000000 magnetization 
 augmentation part        0.9365675 magnetization 

 Broyden mixing:
  rms(total) = 0.40459E-02    rms(broyden)= 0.40459E-02
  rms(prec ) = 0.53376E-02
  weight for this iteration     100.00

 eigenvalues of (default mixing * dielectric matrix)
  average eigenvalue GAMMA=   1.8634
  4.7196  2.6145  2.1732  1.4394  0.9080  0.9080  1.0723  1.0723

 Free energy of the ion-electron system (eV)
  ---------------------------------------------------
  alpha Z        PSCENC =         0.05478241
  Ewald energy   TEWEN  =      1528.55424519
  -Hartree energ DENC   =     -2402.85159436
  -exchange      EXHF   =         0.00000000
  -V(xc)+E(xc)   XCENC  =        92.03656328
  PAW double counting   =      1228.98889357    -1235.20800920
  entropy T*S    EENTRO =        -0.00000000
  eigenvalues    EBANDS =      -317.37139556
  atomic energy  EATOM  =      1053.68003169
  Solvation  Ediel_sol  =         0.00000000
  ---------------------------------------------------
  free energy    TOTEN  =       -52.11648299 eV

  energy without entropy =      -52.11648299  energy(sigma->0) =      -52.11648299


--------------------------------------------------------------------------------------------------------




----------------------------------------- Iteration    1(  14)  ---------------------------------------


    POTLOK:  cpu time   34.6121: real time   34.7067
    SETDIJ:  cpu time    0.1444: real time    0.1448
     EDDAV:  cpu time   20.0728: real time   20.1284
       DOS:  cpu time    0.0000: real time    0.0000
    CHARGE:  cpu time    4.4710: real time    4.4832
    MIXING:  cpu time    1.3009: real time    1.3044
    --------------------------------------------
      LOOP:  cpu time   60.6031: real time   60.7713

 eigenvalue-minimisations  :    36
 total energy-change (2. order) :-0.5130633E-02  (-0.6748322E-04)
 number of electron      24.0000000 magnetization 
 augmentation part        0.9367360 magnetization 

 Broyden mixing:
  rms(total) = 0.19709E-02    rms(broyden)= 0.19709E-02
  rms(prec ) = 0.29048E-02
  weight for this iteration     100.00

 eigenvalues of (default mixing * dielectric matrix)
  average eigenvalue GAMMA=   1.9838
  5.6065  2.9982  2.4029  1.5164  1.4081  0.9146  0.9146  1.0466  1.0466

 Free energy of the ion-electron system (eV)
  ---------------------------------------------------
  alpha Z        PSCENC =         0.05478241
  Ewald energy   TEWEN  =      1528.55424519
  -Hartree energ DENC   =     -2403.36934223
  -exchange      EXHF   =         0.00000000
  -V(xc)+E(xc)   XCENC  =        92.03220481
  PAW double counting   =      1228.89817426    -1235.11852108
  entropy T*S    EENTRO =        -0.00000000
  eigenvalues    EBANDS =      -316.85318868
  atomic energy  EATOM  =      1053.68003169
  Solvation  Ediel_sol  =         0.00000000
  ---------------------------------------------------
  free energy    TOTEN  =       -52.12161362 eV

  energy without entropy =      -52.12161362  energy(sigma->0) =      -52.12161362


--------------------------------------------------------------------------------------------------------




----------------------------------------- Iteration    1(  15)  ---------------------------------------


    POTLOK:  cpu time   34.5973: real time   34.6922
    SETDIJ:  cpu time    0.1387: real time    0.1390
     EDDAV:  cpu time   25.4680: real time   25.5383
       DOS:  cpu time    0.0000: real time    0.0000
    CHARGE:  cpu time    4.4732: real time    4.4853
    MIXING:  cpu time    1.3603: real time    1.3643
    --------------------------------------------
      LOOP:  cpu time   66.0392: real time   66.2237

 eigenvalue-minimisations  :    50
 total energy-change (2. order) :-0.4311115E-02  (-0.6122133E-04)
 number of electron      24.0000000 magnetization 
 augmentation part        0.9366066 magnetization 

 Broyden mixing:
  rms(total) = 0.18472E-02    rms(broyden)= 0.18472E-02
  rms(prec ) = 0.22255E-02
  weight for this iteration     100.00

 eigenvalues of (default mixing * dielectric matrix)
  average eigenvalue GAMMA=   2.0259
  6.4280  3.2431  2.2907  1.8846  1.3784  1.0810  1.0810  0.8921  0.8921  1.0877

 Free energy of the ion-electron system (eV)
  ---------------------------------------------------
  alpha Z        PSCENC =         0.05478241
  Ewald energy   TEWEN  =      1528.55424519
  -Hartree energ DENC   =     -2403.69168171
  -exchange      EXHF   =         0.00000000
  -V(xc)+E(xc)   XCENC  =        92.02888346
  PAW double counting   =      1229.09359217    -1235.31452567
  entropy T*S    EENTRO =        -0.00000000
  eigenvalues    EBANDS =      -316.53125228
  atomic energy  EATOM  =      1053.68003169
  Solvation  Ediel_sol  =         0.00000000
  ---------------------------------------------------
  free energy    TOTEN  =       -52.12592474 eV

  energy without entropy =      -52.12592474  energy(sigma->0) =      -52.12592474


--------------------------------------------------------------------------------------------------------




----------------------------------------- Iteration    1(  16)  ---------------------------------------


    POTLOK:  cpu time   34.5683: real time   34.6628
    SETDIJ:  cpu time    0.1358: real time    0.1361
     EDDAV:  cpu time   29.3315: real time   29.4126
       DOS:  cpu time    0.0000: real time    0.0000
    CHARGE:  cpu time    4.4600: real time    4.4721
    MIXING:  cpu time    1.4298: real time    1.4339
    --------------------------------------------
      LOOP:  cpu time   69.9272: real time   70.1223

 eigenvalue-minimisations  :    60
 total energy-change (2. order) :-0.2143439E-02  (-0.1709240E-04)
 number of electron      24.0000000 magnetization 
 augmentation part        0.9367125 magnetization 

 Broyden mixing:
  rms(total) = 0.84366E-03    rms(broyden)= 0.84366E-03
  rms(prec ) = 0.11339E-02
  weight for this iteration     100.00

 eigenvalues of (default mixing * dielectric matrix)
  average eigenvalue GAMMA=   2.1762
  7.3401  3.9089  2.4792  2.4792  1.5256  1.2759  1.0698  1.0698  1.0175  0.8859
  0.8859

 Free energy of the ion-electron system (eV)
  ---------------------------------------------------
  alpha Z        PSCENC =         0.05478241
  Ewald energy   TEWEN  =      1528.55424519
  -Hartree energ DENC   =     -2403.76645990
  -exchange      EXHF   =         0.00000000
  -V(xc)+E(xc)   XCENC  =        92.02431755
  PAW double counting   =      1228.92186625    -1235.14169676
  entropy T*S    EENTRO =        -0.00000000
  eigenvalues    EBANDS =      -316.45515459
  atomic energy  EATOM  =      1053.68003169
  Solvation  Ediel_sol  =         0.00000000
  ---------------------------------------------------
  free energy    TOTEN  =       -52.12806818 eV

  energy without entropy =      -52.12806818  energy(sigma->0) =      -52.12806818


--------------------------------------------------------------------------------------------------------




----------------------------------------- Iteration    1(  17)  ---------------------------------------


    POTLOK:  cpu time   34.5805: real time   34.6751
    SETDIJ:  cpu time    0.1263: real time    0.1266
     EDDAV:  cpu time   22.4109: real time   22.4728
       DOS:  cpu time    0.0000: real time    0.0000
    CHARGE:  cpu time    4.4660: real time    4.4782
    MIXING:  cpu time    1.4750: real time    1.4792
    --------------------------------------------
      LOOP:  cpu time   63.0605: real time   63.2365

 eigenvalue-minimisations  :    42
 total energy-change (2. order) :-0.1821405E-02  (-0.1517335E-04)
 number of electron      24.0000000 magnetization 
 augmentation part        0.9366321 magnetization 

 Broyden mixing:
  rms(total) = 0.49303E-03    rms(broyden)= 0.49303E-03
  rms(prec ) = 0.61552E-03
  weight for this iteration     100.00

 eigenvalues of (default mixing * dielectric matrix)
  average eigenvalue GAMMA=   2.1921
  7.8450  4.2074  2.6936  2.2307  1.6007  1.6007  1.0988  1.0988  1.2281  0.8890
  0.8890  0.9230

 Free energy of the ion-electron system (eV)
  ---------------------------------------------------
  alpha Z        PSCENC =         0.05478241
  Ewald energy   TEWEN  =      1528.55424519
  -Hartree energ DENC   =     -2403.80765346
  -exchange      EXHF   =         0.00000000
  -V(xc)+E(xc)   XCENC  =        92.02149660
  PAW double counting   =      1228.97101844    -1235.19105552
  entropy T*S    EENTRO =        -0.00000000
  eigenvalues    EBANDS =      -316.41275493
  atomic energy  EATOM  =      1053.68003169
  Solvation  Ediel_sol  =         0.00000000
  ---------------------------------------------------
  free energy    TOTEN  =       -52.12988958 eV

  energy without entropy =      -52.12988958  energy(sigma->0) =      -52.12988958


--------------------------------------------------------------------------------------------------------




----------------------------------------- Iteration    1(  18)  ---------------------------------------


    POTLOK:  cpu time   34.5788: real time   34.6737
    SETDIJ:  cpu time    0.1370: real time    0.1373
     EDDAV:  cpu time   29.3457: real time   29.4264
       DOS:  cpu time    0.0000: real time    0.0000
    CHARGE:  cpu time    4.4667: real time    4.4791
    MIXING:  cpu time    1.5436: real time    1.5477
    --------------------------------------------
      LOOP:  cpu time   70.0736: real time   70.2688

 eigenvalue-minimisations  :    60
 total energy-change (2. order) :-0.5490211E-03  (-0.2237445E-05)
 number of electron      24.0000000 magnetization 
 augmentation part        0.9365920 magnetization 

 Broyden mixing:
  rms(total) = 0.30059E-03    rms(broyden)= 0.30059E-03
  rms(prec ) = 0.38024E-03
  weight for this iteration     100.00

 eigenvalues of (default mixing * dielectric matrix)
  average eigenvalue GAMMA=   2.2337
  8.1580  4.8942  2.5978  2.5978  2.0299  1.5250  1.0858  1.0858  0.8886  0.8886
  1.1475  1.1475  0.9920

 Free energy of the ion-electron system (eV)
  ---------------------------------------------------
  alpha Z        PSCENC =         0.05478241
  Ewald energy   TEWEN  =      1528.55424519
  -Hartree energ DENC   =     -2403.81615931
  -exchange      EXHF   =         0.00000000
  -V(xc)+E(xc)   XCENC  =        92.02096735
  PAW double counting   =      1229.00267609    -1235.22277512
  entropy T*S    EENTRO =        -0.00000000
  eigenvalues    EBANDS =      -316.40420689
  atomic energy  EATOM  =      1053.68003169
  Solvation  Ediel_sol  =         0.00000000
  ---------------------------------------------------
  free energy    TOTEN  =       -52.13043860 eV

  energy without entropy =      -52.13043860  energy(sigma->0) =      -52.13043860


--------------------------------------------------------------------------------------------------------




----------------------------------------- Iteration    1(  19)  ---------------------------------------


    POTLOK:  cpu time   34.5097: real time   34.6044
    SETDIJ:  cpu time    0.1363: real time    0.1366
     EDDAV:  cpu time   22.3909: real time   22.4524
       DOS:  cpu time    0.0000: real time    0.0000
    CHARGE:  cpu time    4.4688: real time    4.4813
    MIXING:  cpu time    1.6011: real time    1.6053
    --------------------------------------------
      LOOP:  cpu time   63.1086: real time   63.2844

 eigenvalue-minimisations  :    42
 total energy-change (2. order) :-0.3611808E-03  (-0.9909540E-06)
 number of electron      24.0000000 magnetization 
 augmentation part        0.9366281 magnetization 

 Broyden mixing:
  rms(total) = 0.14868E-03    rms(broyden)= 0.14868E-03
  rms(prec ) = 0.19959E-03
  weight for this iteration     100.00

 eigenvalues of (default mixing * dielectric matrix)
  average eigenvalue GAMMA=   2.2967
  8.5355  5.4123  3.2791  2.4319  2.1956  1.5500  1.5500  1.0988  1.0988  1.2769
  0.8866  0.8866  1.0071  0.9447

 Free energy of the ion-electron system (eV)
  ---------------------------------------------------
  alpha Z        PSCENC =         0.05478241
  Ewald energy   TEWEN  =      1528.55424519
  -Hartree energ DENC   =     -2403.80499388
  -exchange      EXHF   =         0.00000000
  -V(xc)+E(xc)   XCENC  =        92.01970902
  PAW double counting   =      1228.95524568    -1235.17516998
  entropy T*S    EENTRO =        -0.00000000
  eigenvalues    EBANDS =      -316.41464991
  atomic energy  EATOM  =      1053.68003169
  Solvation  Ediel_sol  =         0.00000000
  ---------------------------------------------------
  free energy    TOTEN  =       -52.13079978 eV

  energy without entropy =      -52.13079978  energy(sigma->0) =      -52.13079978


--------------------------------------------------------------------------------------------------------




----------------------------------------- Iteration    1(  20)  ---------------------------------------


    POTLOK:  cpu time   34.4686: real time   34.5633
    SETDIJ:  cpu time    0.1440: real time    0.1443
     EDDAV:  cpu time   25.4463: real time   25.5166
       DOS:  cpu time    0.0000: real time    0.0000
    CHARGE:  cpu time    4.4689: real time    4.4810
    MIXING:  cpu time    1.6664: real time    1.6711
    --------------------------------------------
      LOOP:  cpu time   66.1962: real time   66.3814

 eigenvalue-minimisations  :    50
 total energy-change (2. order) :-0.2069376E-03  (-0.4255228E-06)
 number of electron      24.0000000 magnetization 
 augmentation part        0.9366143 magnetization 

 Broyden mixing:
  rms(total) = 0.98294E-04    rms(broyden)= 0.98294E-04
  rms(prec ) = 0.12078E-03
  weight for this iteration     100.00

 eigenvalues of (default mixing * dielectric matrix)
  average eigenvalue GAMMA=   2.3479
  8.8973  5.8029  3.7835  2.6514  2.3591  1.9881  1.4675  1.1109  1.1109  1.1515
  1.1515  0.8868  0.8868  1.0424  0.9277

 Free energy of the ion-electron system (eV)
  ---------------------------------------------------
  alpha Z        PSCENC =         0.05478241
  Ewald energy   TEWEN  =      1528.55424519
  -Hartree energ DENC   =     -2403.81477841
  -exchange      EXHF   =         0.00000000
  -V(xc)+E(xc)   XCENC  =        92.01966150
  PAW double counting   =      1228.95856334    -1235.17847266
  entropy T*S    EENTRO =        -0.00000000
  eigenvalues    EBANDS =      -316.40503978
  atomic energy  EATOM  =      1053.68003169
  Solvation  Ediel_sol  =         0.00000000
  ---------------------------------------------------
  free energy    TOTEN  =       -52.13100672 eV

  energy without entropy =      -52.13100672  energy(sigma->0) =      -52.13100672


--------------------------------------------------------------------------------------------------------




----------------------------------------- Iteration    1(  21)  ---------------------------------------


    POTLOK:  cpu time   34.3868: real time   34.4817
    SETDIJ:  cpu time    0.1318: real time    0.1322
     EDDAV:  cpu time   26.2834: real time   26.3560
       DOS:  cpu time    0.0000: real time    0.0000
    CHARGE:  cpu time    4.4704: real time    4.4825
    MIXING:  cpu time    1.7464: real time    1.7513
    --------------------------------------------
      LOOP:  cpu time   67.0207: real time   67.2081

 eigenvalue-minimisations  :    52
 total energy-change (2. order) :-0.9175476E-04  (-0.8299444E-07)
 number of electron      24.0000000 magnetization 
 augmentation part        0.9366143 magnetization 

 Broyden mixing:
  rms(total) = 0.43396E-04    rms(broyden)= 0.43396E-04
  rms(prec ) = 0.56265E-04
  weight for this iteration     100.00

 eigenvalues of (default mixing * dielectric matrix)
  average eigenvalue GAMMA=   2.3679
  8.9689  6.1585  4.0385  2.8987  2.4050  1.8921  1.6757  1.6757  1.1034  1.1034
  1.2327  1.0725  0.8873  0.8873  0.9437  0.9437

 Free energy of the ion-electron system (eV)
  ---------------------------------------------------
  alpha Z        PSCENC =         0.05478241
  Ewald energy   TEWEN  =      1528.55424519
  -Hartree energ DENC   =     -2403.81801337
  -exchange      EXHF   =         0.00000000
  -V(xc)+E(xc)   XCENC  =        92.01950761
  PAW double counting   =      1228.95995256    -1235.17987896
  entropy T*S    EENTRO =        -0.00000000
  eigenvalues    EBANDS =      -316.40172559
  atomic energy  EATOM  =      1053.68003169
  Solvation  Ediel_sol  =         0.00000000
  ---------------------------------------------------
  free energy    TOTEN  =       -52.13109848 eV

  energy without entropy =      -52.13109848  energy(sigma->0) =      -52.13109848


--------------------------------------------------------------------------------------------------------




----------------------------------------- Iteration    1(  22)  ---------------------------------------


    POTLOK:  cpu time   34.3463: real time   34.4403
    SETDIJ:  cpu time    0.1254: real time    0.1257
     EDDAV:  cpu time   16.2302: real time   16.2748
       DOS:  cpu time    0.0000: real time    0.0000
    CHARGE:  cpu time    4.4680: real time    4.4802
    MIXING:  cpu time    1.8191: real time    1.8242
    --------------------------------------------
      LOOP:  cpu time   56.9908: real time   57.1501

 eigenvalue-minimisations  :    26
 total energy-change (2. order) :-0.3918489E-04  (-0.1631529E-07)
 number of electron      24.0000000 magnetization 
 augmentation part        0.9366190 magnetization 

 Broyden mixing:
  rms(total) = 0.35524E-04    rms(broyden)= 0.35524E-04
  rms(prec ) = 0.41127E-04
  weight for this iteration     100.00

 eigenvalues of (default mixing * dielectric matrix)
  average eigenvalue GAMMA=   2.3916
  9.1274  6.5410  4.4516  3.0414  2.4177  2.4177  1.8912  1.4584  1.1175  1.1175
  1.1556  1.1556  1.0816  0.8870  0.8870  0.9543  0.9543

 Free energy of the ion-electron system (eV)
  ---------------------------------------------------
  alpha Z        PSCENC =         0.05478241
  Ewald energy   TEWEN  =      1528.55424519
  -Hartree energ DENC   =     -2403.81981263
  -exchange      EXHF   =         0.00000000
  -V(xc)+E(xc)   XCENC  =        92.01948233
  PAW double counting   =      1228.96294116    -1235.18285933
  entropy T*S    EENTRO =        -0.00000000
  eigenvalues    EBANDS =      -316.39994848
  atomic energy  EATOM  =      1053.68003169
  Solvation  Ediel_sol  =         0.00000000
  ---------------------------------------------------
  free energy    TOTEN  =       -52.13113766 eV

  energy without entropy =      -52.13113766  energy(sigma->0) =      -52.13113766


--------------------------------------------------------------------------------------------------------




----------------------------------------- Iteration    1(  23)  ---------------------------------------


    POTLOK:  cpu time   34.3541: real time   34.4481
    SETDIJ:  cpu time    0.1271: real time    0.1274
     EDDAV:  cpu time   22.4435: real time   22.5051
       DOS:  cpu time    0.0000: real time    0.0000
    CHARGE:  cpu time    4.4737: real time    4.4861
    MIXING:  cpu time    1.9041: real time    1.9094
    --------------------------------------------
      LOOP:  cpu time   63.3043: real time   63.4807

 eigenvalue-minimisations  :    42
 total energy-change (2. order) :-0.1707700E-04  (-0.7943299E-08)
 number of electron      24.0000000 magnetization 
 augmentation part        0.9366140 magnetization 

 Broyden mixing:
  rms(total) = 0.17461E-04    rms(broyden)= 0.17461E-04
  rms(prec ) = 0.21074E-04
  weight for this iteration     100.00

 eigenvalues of (default mixing * dielectric matrix)
  average eigenvalue GAMMA=   2.3814
  9.2555  6.6758  4.7606  3.2354  2.6078  2.3530  1.8703  1.4163  1.4163  1.3606
  1.1109  1.1109  1.0211  1.0211  0.8893  0.8893  0.9353  0.9353

 Free energy of the ion-electron system (eV)
  ---------------------------------------------------
  alpha Z        PSCENC =         0.05478241
  Ewald energy   TEWEN  =      1528.55424519
  -Hartree energ DENC   =     -2403.82210197
  -exchange      EXHF   =         0.00000000
  -V(xc)+E(xc)   XCENC  =        92.01951631
  PAW double counting   =      1228.96286902    -1235.18278899
  entropy T*S    EENTRO =        -0.00000000
  eigenvalues    EBANDS =      -316.39770840
  atomic energy  EATOM  =      1053.68003169
  Solvation  Ediel_sol  =         0.00000000
  ---------------------------------------------------
  free energy    TOTEN  =       -52.13115474 eV

  energy without entropy =      -52.13115474  energy(sigma->0) =      -52.13115474


--------------------------------------------------------------------------------------------------------




----------------------------------------- Iteration    1(  24)  ---------------------------------------


    POTLOK:  cpu time   34.3739: real time   34.4679
    SETDIJ:  cpu time    0.1377: real time    0.1380
     EDDAV:  cpu time   17.0132: real time   17.0600
       DOS:  cpu time    0.0000: real time    0.0000
    CHARGE:  cpu time    4.4713: real time    4.4837
    MIXING:  cpu time    1.9898: real time    1.9961
    --------------------------------------------
      LOOP:  cpu time   57.9876: real time   58.1505

 eigenvalue-minimisations  :    28
 total energy-change (2. order) :-0.7778889E-05  (-0.3491166E-08)
 number of electron      24.0000000 magnetization 
 augmentation part        0.9366159 magnetization 

 Broyden mixing:
  rms(total) = 0.12325E-04    rms(broyden)= 0.12325E-04
  rms(prec ) = 0.14411E-04
  weight for this iteration     100.00

 eigenvalues of (default mixing * dielectric matrix)
  average eigenvalue GAMMA=   2.4168
  9.3789  6.8653  5.1202  3.4909  2.7682  2.3571  2.3571  1.8331  1.4899  1.1284
  1.1284  1.1339  1.1339  1.0654  1.0654  0.8889  0.8889  0.9124  0.9124

 Free energy of the ion-electron system (eV)
  ---------------------------------------------------
  alpha Z        PSCENC =         0.05478241
  Ewald energy   TEWEN  =      1528.55424519
  -Hartree energ DENC   =     -2403.82287189
  -exchange      EXHF   =         0.00000000
  -V(xc)+E(xc)   XCENC  =        92.01951697
  PAW double counting   =      1228.96257842    -1235.18250019
  entropy T*S    EENTRO =        -0.00000000
  eigenvalues    EBANDS =      -316.39694511
  atomic energy  EATOM  =      1053.68003169
  Solvation  Ediel_sol  =         0.00000000
  ---------------------------------------------------
  free energy    TOTEN  =       -52.13116252 eV

  energy without entropy =      -52.13116252  energy(sigma->0) =      -52.13116252


--------------------------------------------------------------------------------------------------------




----------------------------------------- Iteration    1(  25)  ---------------------------------------


    POTLOK:  cpu time   34.4136: real time   34.5078
    SETDIJ:  cpu time    0.1361: real time    0.1364
     EDDAV:  cpu time   16.2350: real time   16.2800
       DOS:  cpu time    0.0000: real time    0.0000
    CHARGE:  cpu time    4.4656: real time    4.4777
    MIXING:  cpu time    2.0802: real time    2.0859
    --------------------------------------------
      LOOP:  cpu time   57.3324: real time   57.4924

 eigenvalue-minimisations  :    26
 total energy-change (2. order) :-0.5235103E-05  (-0.2078526E-08)
 number of electron      24.0000000 magnetization 
 augmentation part        0.9366157 magnetization 

 Broyden mixing:
  rms(total) = 0.61164E-05    rms(broyden)= 0.61164E-05
  rms(prec ) = 0.72522E-05
  weight for this iteration     100.00

 eigenvalues of (default mixing * dielectric matrix)
  average eigenvalue GAMMA=   2.3945
  9.3993  7.1437  5.3252  3.8279  2.8171  2.4304  2.2401  1.8719  1.4732  1.1792
  1.1792  1.1251  1.1251  1.0916  0.8874  0.8874  1.0276  0.9600  0.9494  0.9494

 Free energy of the ion-electron system (eV)
  ---------------------------------------------------
  alpha Z        PSCENC =         0.05478241
  Ewald energy   TEWEN  =      1528.55424519
  -Hartree energ DENC   =     -2403.82283770
  -exchange      EXHF   =         0.00000000
  -V(xc)+E(xc)   XCENC  =        92.01950246
  PAW double counting   =      1228.96142510    -1235.18135472
  entropy T*S    EENTRO =        -0.00000000
  eigenvalues    EBANDS =      -316.39696217
  atomic energy  EATOM  =      1053.68003169
  Solvation  Ediel_sol  =         0.00000000
  ---------------------------------------------------
  free energy    TOTEN  =       -52.13116775 eV

  energy without entropy =      -52.13116775  energy(sigma->0) =      -52.13116775


--------------------------------------------------------------------------------------------------------




----------------------------------------- Iteration    1(  26)  ---------------------------------------


    POTLOK:  cpu time   34.4526: real time   34.5472
    SETDIJ:  cpu time    0.1343: real time    0.1347
     EDDAV:  cpu time   22.3546: real time   22.4161
       DOS:  cpu time    0.0000: real time    0.0000
    CHARGE:  cpu time    4.4638: real time    4.4762
    MIXING:  cpu time    2.1579: real time    2.1638
    --------------------------------------------
      LOOP:  cpu time   63.5651: real time   63.7421

 eigenvalue-minimisations  :    42
 total energy-change (2. order) :-0.1333718E-05  (-0.9865460E-09)
 number of electron      24.0000000 magnetization 
 augmentation part        0.9366166 magnetization 

 Broyden mixing:
  rms(total) = 0.46743E-05    rms(broyden)= 0.46743E-05
  rms(prec ) = 0.54118E-05
  weight for this iteration     100.00

 eigenvalues of (default mixing * dielectric matrix)
  average eigenvalue GAMMA=   2.3967
  9.4472  7.2796  5.4740  4.0146  2.9327  2.4594  2.0847  2.0400  2.0400  1.4567
  1.1258  1.1258  1.1515  1.1515  1.0588  0.9575  0.9575  0.8825  0.8825  0.9042
  0.9042

 Free energy of the ion-electron system (eV)
  ---------------------------------------------------
  alpha Z        PSCENC =         0.05478241
  Ewald energy   TEWEN  =      1528.55424519
  -Hartree energ DENC   =     -2403.82283053
  -exchange      EXHF   =         0.00000000
  -V(xc)+E(xc)   XCENC  =        92.01950013
  PAW double counting   =      1228.96152919    -1235.18145623
  entropy T*S    EENTRO =        -0.00000000
  eigenvalues    EBANDS =      -316.39697093
  atomic energy  EATOM  =      1053.68003169
  Solvation  Ediel_sol  =         0.00000000
  ---------------------------------------------------
  free energy    TOTEN  =       -52.13116909 eV

  energy without entropy =      -52.13116909  energy(sigma->0) =      -52.13116909


--------------------------------------------------------------------------------------------------------




----------------------------------------- Iteration    1(  27)  ---------------------------------------


    POTLOK:  cpu time   34.4632: real time   34.5578
    SETDIJ:  cpu time    0.1303: real time    0.1307
     EDDAV:  cpu time   17.0260: real time   17.0729
       DOS:  cpu time    0.0000: real time    0.0000
    CHARGE:  cpu time    4.4679: real time    4.4801
    MIXING:  cpu time    2.2585: real time    2.2649
    --------------------------------------------
      LOOP:  cpu time   58.3477: real time   58.5107

 eigenvalue-minimisations  :    28
 total energy-change (2. order) :-0.1328211E-05  (-0.6617817E-09)
 number of electron      24.0000000 magnetization 
 augmentation part        0.9366159 magnetization 

 Broyden mixing:
  rms(total) = 0.45354E-05    rms(broyden)= 0.45354E-05
  rms(prec ) = 0.48697E-05
  weight for this iteration     100.00

 eigenvalues of (default mixing * dielectric matrix)
  average eigenvalue GAMMA=   2.4300
  9.4762  7.6347  5.8415  4.4856  3.2970  2.6750  2.3871  2.1317  1.8815  1.4619
  1.2381  1.2381  1.1146  1.1146  1.0645  1.0645  0.9675  0.8837  0.8837  0.9228
  0.9228  0.7719

 Free energy of the ion-electron system (eV)
  ---------------------------------------------------
  alpha Z        PSCENC =         0.05478241
[...]
  Solvation  Ediel_sol  =         0.00000000
  ---------------------------------------------------
  free energy    TOTEN  =       -52.13117041 eV

  energy without entropy =      -52.13117041  energy(sigma->0) =      -52.13117041


--------------------------------------------------------------------------------------------------------




----------------------------------------- Iteration    1(  28)  ---------------------------------------


    POTLOK:  cpu time   34.3272: real time   34.4212
    SETDIJ:  cpu time    0.1375: real time    0.1378
     EDDAV:  cpu time   16.2481: real time   16.2928
       DOS:  cpu time    0.0000: real time    0.0000
    CHARGE:  cpu time    4.4760: real time    4.4885
    MIXING:  cpu time    2.3477: real time    2.3541
    --------------------------------------------
      LOOP:  cpu time   57.5384: real time   57.7004

 eigenvalue-minimisations  :    26
 total energy-change (2. order) :-0.5174802E-06  (-0.4620340E-09)
 number of electron      24.0000000 magnetization 
 augmentation part        0.9366161 magnetization 

 Broyden mixing:
  rms(total) = 0.26804E-05    rms(broyden)= 0.26804E-05
  rms(prec ) = 0.28640E-05
  weight for this iteration     100.00

 eigenvalues of (default mixing * dielectric matrix)
  average eigenvalue GAMMA=   2.3929
  9.4721  7.7522  5.8698  4.5979  3.2581  2.7813  2.4139  1.9860  1.6684  1.6684
  1.3264  1.3264  1.3473  1.1098  1.1098  1.0198  0.9985  0.9985  0.9371  0.8887
  0.8887  0.8093  0.8093

 Free energy of the ion-electron system (eV)
  ---------------------------------------------------
  alpha Z        PSCENC =         0.05478241
  Ewald energy   TEWEN  =      1528.55424519
  -Hartree energ DENC   =     -2403.82294243
  -exchange      EXHF   =         0.00000000
  -V(xc)+E(xc)   XCENC  =        92.01949940
  PAW double counting   =      1228.96169975    -1235.18162614
  entropy T*S    EENTRO =        -0.00000000
  eigenvalues    EBANDS =      -316.39686080
  atomic energy  EATOM  =      1053.68003169
  Solvation  Ediel_sol  =         0.00000000
  ---------------------------------------------------
  free energy    TOTEN  =       -52.13117093 eV

  energy without entropy =      -52.13117093  energy(sigma->0) =      -52.13117093


--------------------------------------------------------------------------------------------------------




----------------------------------------- Iteration    1(  29)  ---------------------------------------


    POTLOK:  cpu time   34.3031: real time   34.3973
    SETDIJ:  cpu time    0.1253: real time    0.1256
     EDDAV:  cpu time   23.2454: real time   23.3094
       DOS:  cpu time    0.0000: real time    0.0000
    CHARGE:  cpu time    4.4690: real time    4.4814
    MIXING:  cpu time    2.4480: real time    2.4546
    --------------------------------------------
      LOOP:  cpu time   64.5927: real time   64.7725

 eigenvalue-minimisations  :    44
 total energy-change (2. order) :-0.2110905E-06  (-0.2916014E-09)
 number of electron      24.0000000 magnetization 
 augmentation part        0.9366161 magnetization 

 Broyden mixing:
  rms(total) = 0.94142E-06    rms(broyden)= 0.94142E-06
  rms(prec ) = 0.11237E-05
  weight for this iteration     100.00

 eigenvalues of (default mixing * dielectric matrix)
  average eigenvalue GAMMA=   2.4047
  9.4747  7.9233  5.9739  4.8038  3.4063  2.9237  2.3997  2.1135  2.1135  1.9875
  1.3903  1.2925  1.2925  1.1133  1.1133  1.0315  1.0315  1.0027  1.0027  0.8875
  0.8875  0.9319  0.8721  0.7438

 Free energy of the ion-electron system (eV)
  ---------------------------------------------------
  alpha Z        PSCENC =         0.05478241
  Ewald energy   TEWEN  =      1528.55424519
  -Hartree energ DENC   =     -2403.82293880
  -exchange      EXHF   =         0.00000000
  -V(xc)+E(xc)   XCENC  =        92.01949791
  PAW double counting   =      1228.96171080    -1235.18163770
  entropy T*S    EENTRO =        -0.00000000
  eigenvalues    EBANDS =      -316.39686264
  atomic energy  EATOM  =      1053.68003169
  Solvation  Ediel_sol  =         0.00000000
  ---------------------------------------------------
  free energy    TOTEN  =       -52.13117114 eV

  energy without entropy =      -52.13117114  energy(sigma->0) =      -52.13117114


--------------------------------------------------------------------------------------------------------




----------------------------------------- Iteration    1(  30)  ---------------------------------------


    POTLOK:  cpu time   34.2456: real time   34.3393
    SETDIJ:  cpu time    0.1408: real time    0.1415
     EDDAV:  cpu time   16.9844: real time   17.0312
       DOS:  cpu time    0.0000: real time    0.0000
    CHARGE:  cpu time    4.4650: real time    4.4771
    MIXING:  cpu time    2.5438: real time    2.5510
    --------------------------------------------
      LOOP:  cpu time   58.3815: real time   58.5445

 eigenvalue-minimisations  :    28
 total energy-change (2. order) :-0.2118331E-06  (-0.2286367E-09)
 number of electron      24.0000000 magnetization 
 augmentation part        0.9366162 magnetization 

 Broyden mixing:
  rms(total) = 0.11839E-05    rms(broyden)= 0.11839E-05
  rms(prec ) = 0.12612E-05
  weight for this iteration     100.00

 eigenvalues of (default mixing * dielectric matrix)
  average eigenvalue GAMMA=   2.4234
  9.5718  8.0526  6.3575  5.0362  3.9045  2.9137  2.6717  2.4214  2.0047  1.7826
  1.4605  1.3235  1.3235  1.1099  1.1099  1.1215  1.1215  1.0132  1.0132  0.9620
  0.8912  0.8912  0.8893  0.8893  0.7479

 Free energy of the ion-electron system (eV)
  ---------------------------------------------------
  alpha Z        PSCENC =         0.05478241
  Ewald energy   TEWEN  =      1528.55424519
  -Hartree energ DENC   =     -2403.82297177
  -exchange      EXHF   =         0.00000000
  -V(xc)+E(xc)   XCENC  =        92.01949764
  PAW double counting   =      1228.96171022    -1235.18163691
  entropy T*S    EENTRO =        -0.00000000
  eigenvalues    EBANDS =      -316.39682982
  atomic energy  EATOM  =      1053.68003169
  Solvation  Ediel_sol  =         0.00000000
  ---------------------------------------------------
  free energy    TOTEN  =       -52.13117135 eV

  energy without entropy =      -52.13117135  energy(sigma->0) =      -52.13117135


--------------------------------------------------------------------------------------------------------




----------------------------------------- Iteration    1(  31)  ---------------------------------------


    POTLOK:  cpu time   34.3612: real time   34.4552
    SETDIJ:  cpu time    0.1414: real time    0.1418
     EDDAV:  cpu time   16.9941: real time   17.0409
       DOS:  cpu time    0.0000: real time    0.0000
    --------------------------------------------
      LOOP:  cpu time   51.4985: real time   51.6581

 eigenvalue-minimisations  :    28
 total energy-change (2. order) :-0.8086931E-07  (-0.1756391E-09)
 number of electron      24.0000000 magnetization 
 augmentation part        0.9366162 magnetization 

 Free energy of the ion-electron system (eV)
  ---------------------------------------------------
  alpha Z        PSCENC =         0.05478241
  Ewald energy   TEWEN  =      1528.55424519
  -Hartree energ DENC   =     -2403.82302426
  -exchange      EXHF   =         0.00000000
  -V(xc)+E(xc)   XCENC  =        92.01949870
  PAW double counting   =      1228.96173369    -1235.18165995
  entropy T*S    EENTRO =        -0.00000000
  eigenvalues    EBANDS =      -316.39677891
  atomic energy  EATOM  =      1053.68003169
  Solvation  Ediel_sol  =         0.00000000
  ---------------------------------------------------
  free energy    TOTEN  =       -52.13117143 eV

  energy without entropy =      -52.13117143  energy(sigma->0) =      -52.13117143


--------------------------------------------------------------------------------------------------------




 average (electrostatic) potential at core
  the test charge radii are     0.5902  0.7215  0.5883  0.6991
  (the norm of the test charge is              1.0000)
       1 -73.3755       2 -79.2951       3 -42.0855       4 -42.4929       5 -39.9602
       6 -40.0725       7 -39.9537       8 -61.0695       9 -58.7684
 
 
 
 E-fermi :  -5.5853     XC(G=0):  -0.0388     alpha+bet : -0.0117


 k-point     1 :       0.0000    0.0000    0.0000
  band No.  band energies     occupation 
      1     -25.7048      2.00000
      2     -22.7873      2.00000
      3     -18.3683      2.00000
      4     -14.7971      2.00000
      5     -13.5717      2.00000
      6     -11.5101      2.00000
      7     -11.0162      2.00000
      8      -9.8471      2.00000
      9      -9.4934      2.00000
     10      -8.9266      2.00000
     11      -6.5366      2.00000
     12      -5.6391      2.00000
     13      -0.9139      0.00000
     14      -0.5965      0.00000
     15      -0.1220      0.00000
     16       0.0025      0.00000
     17       0.1032      0.00000


--------------------------------------------------------------------------------------------------------


 soft charge-density along one line, spin component           1
         0         1         2         3         4         5         6         7         8         9
 total charge-density along one line
 
 pseudopotential strength for first ion, spin component:           1
 14.426 -14.426  -0.002  -0.001   0.001   0.003   0.001  -0.012
-14.426  18.470   0.002   0.001  -0.002  -0.001  -0.000   0.013
 -0.002   0.002  -7.500  -0.024   0.002   3.857   0.066  -0.006
 -0.001   0.001  -0.024  -7.458  -0.002   0.066   3.744   0.006
  0.001  -0.002   0.002  -0.002  -7.507  -0.006   0.006   3.876
  0.003  -0.001   3.857   0.066  -0.006  33.574  -0.071   0.006
  0.001  -0.000   0.066   3.744   0.006  -0.071  33.696  -0.006
 -0.012   0.013  -0.006   0.006   3.876   0.006  -0.006  33.554
 total augmentation occupancy for first ion, spin component:           1
  1.748   0.061   0.022   0.009  -0.016   0.002   0.001  -0.003
  0.061   0.003   0.001   0.000  -0.002   0.001   0.000  -0.001
  0.022   0.001   1.520  -0.052  -0.002   0.086   0.021  -0.003
  0.009   0.000  -0.052   1.609  -0.009   0.021   0.049   0.001
 -0.016  -0.002  -0.002  -0.009   1.476  -0.003   0.001   0.091
  0.002   0.001   0.086   0.021  -0.003   0.006   0.002  -0.001
  0.001   0.000   0.021   0.049   0.001   0.002   0.002  -0.000
 -0.003  -0.001  -0.003   0.001   0.091  -0.001  -0.000   0.006


------------------------ aborting loop because EDIFF is reached ----------------------------------------


    CHARGE:  cpu time    4.4708: real time    4.4832
    FORLOC:  cpu time    5.0859: real time    5.0998
    FORNL :  cpu time    2.7594: real time    2.7670
    STRESS:  cpu time   12.2435: real time   12.2770
    FORHAR:  cpu time   12.6803: real time   12.7151
    MIXING:  cpu time    2.6452: real time    2.6523
    OFIELD:  cpu time    0.0000: real time    0.0000

  FORCE on cell =-STRESS in cart. coord.  units (eV):
  Direction    XX          YY          ZZ          XY          YZ          ZX
  --------------------------------------------------------------------------------------
  Alpha Z     0.05478     0.05478     0.05478
  Ewald     728.41793   665.26038   134.87584    14.31815   310.81461    43.40961
  Hartree   952.24426   877.85885   573.71992    -7.68615   176.79568    19.31854
  E(xc)     -96.31380   -96.26217   -97.44497     0.16902     0.70487     0.15158
  Local   -1932.50850 -1782.33889  -978.38599     4.15250  -468.90879   -56.39606
  n-local   -71.40310   -71.78289   -69.99878    -0.73921    -1.09965    -0.43492
  augment     6.16441     5.09209     5.39471    -0.77649    -0.23608    -0.32676
  Kinetic   413.90237   403.65386   432.45475    -9.48223   -17.56789    -5.73675
  Fock        0.00000     0.00000     0.00000     0.00000     0.00000     0.00000
  -------------------------------------------------------------------------------------
  Total       0.55835     1.53600     0.67026    -0.04441     0.50274    -0.01476
  in kB       0.02086     0.05740     0.02505    -0.00166     0.01879    -0.00055
  external pressure =        0.03 kB  Pullay stress =        0.00 kB


 VOLUME and BASIS-vectors are now :
 -----------------------------------------------------------------------------
  energy-cutoff  :     1600.00
  volume of cell :    42875.00
      direct lattice vectors                 reciprocal lattice vectors
    35.000000000  0.000000000  0.000000000     0.028571429  0.000000000  0.000000000
     0.000000000 35.000000000  0.000000000     0.000000000  0.028571429  0.000000000
     0.000000000  0.000000000 35.000000000     0.000000000  0.000000000  0.028571429

  length of vectors
    35.000000000 35.000000000 35.000000000     0.028571429  0.028571429  0.028571429


 FORCES acting on ions
    electron-ion (+dipol)            ewald-force                    non-local-force                 convergence-correction
 -----------------------------------------------------------------------------------------------
   -.111E+03 0.175E+03 0.753E+02   0.113E+03 -.176E+03 -.753E+02   -.921E+00 -.203E+00 -.810E-01   0.730E-06 0.148E-05 0.652E-06
   -.158E+03 -.267E+03 -.131E+03   0.182E+03 0.309E+03 0.151E+03   -.239E+02 -.428E+02 -.209E+02   0.129E-05 -.179E-05 -.480E-06
   -.902E+02 0.218E+02 0.540E+01   0.971E+02 -.220E+02 -.513E+01   -.733E+01 0.239E+00 -.269E+00   -.338E-05 0.235E-06 -.776E-07
   0.279E+02 0.802E+02 0.382E+02   -.320E+02 -.865E+02 -.413E+02   0.404E+01 0.598E+01 0.295E+01   0.205E-05 0.289E-05 0.143E-05
   0.463E+02 -.503E+01 -.591E+02   -.485E+02 0.566E+01 0.647E+02   0.214E+01 -.607E+00 -.528E+01   -.626E-06 0.299E-06 0.123E-05
   0.466E+02 0.508E+02 0.266E+02   -.490E+02 -.557E+02 -.290E+02   0.216E+01 0.468E+01 0.234E+01   -.101E-06 -.598E-06 -.296E-06
   0.416E+02 -.507E+02 0.369E+02   -.434E+02 0.555E+02 -.400E+02   0.173E+01 -.456E+01 0.301E+01   -.545E-06 0.116E-05 -.595E-06
   0.571E+02 0.318E+02 0.177E+02   -.617E+02 -.302E+02 -.171E+02   0.451E+01 -.582E+00 -.393E-01   0.568E-05 -.118E-04 -.518E-05
   0.157E+03 0.678E+00 0.812E+01   -.157E+03 -.522E+00 -.810E+01   0.552E+00 -.316E+00 -.946E-01   0.620E-06 -.536E-07 0.290E-07
 -----------------------------------------------------------------------------------------------
   0.170E+02 0.381E+02 0.183E+02   0.568E-13 0.593E-13 -.302E-13   -.170E+02 -.381E+02 -.183E+02   0.571E-05 -.820E-05 -.328E-05
 
 
 POSITION                                       TOTAL-FORCE (eV/Angst)
 -----------------------------------------------------------------------------------
     34.33438      0.09505     34.50801         0.772570     -0.438815     -0.162767
     34.27470      2.15515      0.45271         0.142859     -0.109753     -0.043547
      0.35458      0.05145     34.54069        -0.389337      0.055124      0.005116
     33.81637     34.32640     34.12924        -0.062478     -0.412846     -0.192880
     31.77937      1.26254      0.89308        -0.125357      0.028243      0.287631
     31.79057      0.24863     34.43810        -0.212659     -0.275732     -0.141206
     31.85684      2.01660     34.31111        -0.102064      0.245019     -0.167680
     33.69025      1.18018     34.97483        -0.152737      1.069438      0.485193
     32.18328      1.15600     34.88939         0.129204     -0.160676     -0.069858
 -----------------------------------------------------------------------------------
    total drift:                                0.000177      0.000133      0.000016


--------------------------------------------------------------------------------------------------------



  FREE ENERGIE OF THE ION-ELECTRON SYSTEM (eV)
  ---------------------------------------------------
  free  energy   TOTEN  =       -52.13117143 eV

  energy  without entropy=      -52.13117143  energy(sigma->0) =      -52.13117143
 


--------------------------------------------------------------------------------------------------------


    POTLOK:  cpu time   34.6468: real time   34.7418


--------------------------------------------------------------------------------------------------------


 writing wavefunctions
     LOOP+:  cpu time 2461.2619: real time 2468.2263
    4ORBIT:  cpu time    0.0000: real time    0.0000

 total amount of memory used by VASP on root node  8598583. kBytes
========================================================================

   base      :      30000. kBytes
   nonl-proj :     145398. kBytes
   fftplans  :    2666593. kBytes
   grid      :    5685964. kBytes
   one-center:          4. kBytes
   wavefun   :      70624. kBytes
 
  
  
 General timing and accounting informations for this job:
 ========================================================
  
                  Total CPU time used (sec):     3275.248
                            User time (sec):     2982.630
                          System time (sec):      292.618
                         Elapsed time (sec):     3285.225
  
                   Maximum memory used (kb):    12783672.
                   Average memory used (kb):           0.
  
                          Minor page faults:       252915
                          Major page faults:            7
                 Voluntary context switches:          740
 
 PROFILE, used timers:      14
 =============================
 
 index                 routine                    time                            calls level
----------------------------------------------------------------------------------------------
    1    total_time                         3285.226023                                1   1
    2      w1_copy                               5.787078                           5756   2
    3      fftwav_mpi                          318.994166                           2254   2
    4      fftext_mpi                            1.575023                             17   2
    5      overl                                 0.001556                           3300   2
    6      orth1                                 7.702451                           1058   2
    7      lincom                                0.482611                             32   2
    8      eccp                                 11.403606                            527   2
    9      hamiltmu                            348.934234                            352   2
   10        vhamil                               69.163952                         1913   3
   11        overl1                                0.001697                         1913   3
   12        kinhamil                            174.324412                         1913   3
   13          fftext_mpi                          172.434916                       1913   4
   14      pdssyex_zheevx                        0.034958                             31   2
 
 Flat profile
 ============
 
             routine name                   CPU           calls
 ---------------------------------------------------------------
 total_time                           2590.310338           1
 fftwav_mpi                            318.994166        2254
 fftext_mpi                            174.009939        1930
 hamiltmu                              105.444173         352
 vhamil                                 69.163952        1913
 eccp                                   11.403606         527
 orth1                                   7.702451        1058
 w1_copy                                 5.787078        5756
 kinhamil                                1.889496        1913
 lincom                                  0.482611          32
 pdssyex_zheevx                          0.034958          31
 overl1                                  0.001697        1913
 overl                                   0.001556        3300
 ---------------------------------------------------------------
  summed up times    3285.22602295876     
 
Profiling took   0.011273  0.006711  0.003409  0.003400 seconds
Profiling took   0.009950 seconds
