 vasp.5.4.1 24Jun15 (build Jan 02 2020 16:21:29) gamma-only                     
  
 executed on           IFC15_impi date 2020.04.13  10:24:25
 running on   12 total cores
 distrk:  each k-point on   12 cores,    1 groups
 distr:  one band on NCORES_PER_BAND=  12 cores,    1 groups


--------------------------------------------------------------------------------------------------------


 INCAR:
 POTCAR:    PAW_PBE C_GW 28Sep2005                
 POTCAR:    PAW_PBE H_GW 21Apr2008                

 ----------------------------------------------------------------------------- 
|                                                                             |
|           W    W    AA    RRRRR   N    N  II  N    N   GGGG   !!!           |
|           W    W   A  A   R    R  NN   N  II  NN   N  G    G  !!!           |
|           W    W  A    A  R    R  N N  N  II  N N  N  G       !!!           |
|           W WW W  AAAAAA  RRRRR   N  N N  II  N  N N  G  GGG   !            |
|           WW  WW  A    A  R   R   N   NN  II  N   NN  G    G                |
|           W    W  A    A  R    R  N    N  II  N    N   GGGG   !!!           |
|                                                                             |
|      For optimal performance we recommend to set                            |
|        NCORE= 4 - approx SQRT( number of cores)                             |
|      NCORE specifies how many cores store one orbital (NPAR=cpu/NCORE).     |
|      This setting can  greatly improve the performance of VASP for DFT.     |
|      The default, NPAR=number of cores might be grossly inefficient         |
|      on modern multi-core architectures or massively parallel machines.     |
|      Do your own testing !!!!                                               |
|      Unfortunately you need to use the default for GW and RPA calculations. |
|      (for HF NCORE is supported but not extensively tested yet)             |
|                                                                             |
 ----------------------------------------------------------------------------- 

 POTCAR:    PAW_PBE C_GW 28Sep2005                
   VRHFIN =C: s2p2                                                              
   LEXCH  = PE                                                                  
   EATOM  =   147.1560 eV,   10.8157 Ry                                         
                                                                                
   TITEL  = PAW_PBE C_GW 28Sep2005                                              
   LULTRA =        F    use ultrasoft PP ?                                      
   IUNSCR =        0    unscreen: 0-lin 1-nonlin 2-no                           
   RPACOR =    0.000    partial core radius                                     
   POMASS =   12.011; ZVAL   =    4.000    mass and valenz                      
   RCORE  =    1.500    outmost cutoff radius                                   
   RWIGS  =    1.630; RWIGS  =    0.863    wigner-seitz radius (au A)           
   ENMAX  =  413.992; ENMIN  =  310.494 eV                                      
   ICORE  =        2    local potential                                         
   LCOR   =        T    correct aug charges                                     
   LPAW   =        T    paw PP                                                  
   EAUG   =  644.873                                                            
   DEXC   =    0.000                                                            
   RMAX   =    1.529    core radius for proj-oper                               
   RAUG   =    1.300    factor for augmentation sphere                          
   RDEP   =    1.501    radius for radial grids                                 
   RDEPT  =    1.300    core radius for aug-charge                              
                                                                                
   Atomic configuration                                                         
    4 entries                                                                   
     n  l   j            E        occ.                                          
     1  0  0.50      -273.3789   2.0000                                         
     2  0  0.50       -13.7508   2.0000                                         
     2  1  0.50        -5.2854   2.0000                                         
     3  2  1.50        -5.4423   0.0000                                         
   Description                                                                  
     l       E           TYP  RCUT    TYP  RCUT                                 
     0    -13.7508457     23  1.200                                             
     0     95.2407820     23  1.200                                             
     1     -5.2854382     23  1.500                                             
     1    108.8466080     23  1.500                                             
     2     -5.4423304      7  1.500                                             
  local pseudopotential read in
  kinetic energy density of atom read in
  atomic valenz-charges read in
  non local Contribution for L=           0  read in
    real space projection operators read in
  non local Contribution for L=           0  read in
    real space projection operators read in
  non local Contribution for L=           1  read in
    real space projection operators read in
  non local Contribution for L=           1  read in
    real space projection operators read in
    PAW grid and wavefunctions read in
 
   number of l-projection  operators is LMAX  =           4
   number of lm-projection operators is LMMAX =           8
 
 POTCAR:    PAW_PBE H_GW 21Apr2008                
   VRHFIN =H: ultrasoft test                                                    
   LEXCH  = PE                                                                  
   EATOM  =    12.4884 eV,    0.9179 Ry                                         
                                                                                
   TITEL  = PAW_PBE H_GW 21Apr2008                                              
   LULTRA =        F    use ultrasoft PP ?                                      
   IUNSCR =        0    unscreen: 0-lin 1-nonlin 2-no                           
   RPACOR =    0.000    partial core radius                                     
   POMASS =    1.000; ZVAL   =    1.000    mass and valenz                      
   RCORE  =    1.100    outmost cutoff radius                                   
   RWIGS  =    1.100; RWIGS  =    0.582    wigner-seitz radius (au A)           
   ENMAX  =  300.000; ENMIN  =  250.000 eV                                      
   RCLOC  =    0.701    cutoff for local pot                                    
   LCOR   =        T    correct aug charges                                     
   LPAW   =        T    paw PP                                                  
   EAUG   =  500.000                                                            
   RMAX   =    1.123    core radius for proj-oper                               
   RAUG   =    1.200    factor for augmentation sphere                          
   RDEP   =    1.112    radius for radial grids                                 
   RDEPT  =    1.100    core radius for aug-charge                              
                                                                                
   Atomic configuration                                                         
    3 entries                                                                   
     n  l   j            E        occ.                                          
     1  0  0.50        -6.4927   1.0000                                         
     2  1  0.50        -3.4015   0.0000                                         
     3  2  1.50        13.6058   0.0000                                         
   Description                                                                  
     l       E           TYP  RCUT    TYP  RCUT                                 
     0     -6.4927495     23  0.950                                             
     0      6.8029130     23  0.950                                             
     1     -4.0817478     23  1.100                                             
     1    108.8466080     23  1.100                                             
     2     81.6349560     23  1.100                                             
  local pseudopotential read in
  kinetic energy density of atom read in
  atomic valenz-charges read in
  non local Contribution for L=           0  read in
    real space projection operators read in
  non local Contribution for L=           0  read in
    real space projection operators read in
  non local Contribution for L=           1  read in
    real space projection operators read in
  non local Contribution for L=           1  read in
    real space projection operators read in
  non local Contribution for L=           2  read in
    real space projection operators read in
    PAW grid and wavefunctions read in
 
   number of l-projection  operators is LMAX  =           5
   number of lm-projection operators is LMMAX =          13
 
  PAW_PBE C_GW 28Sep2005                :
 energy of atom  1       EATOM= -147.1560
 kinetic energy error for atom=    0.0002 (will be added to EATOM!!)
  PAW_PBE H_GW 21Apr2008                :
 energy of atom  2       EATOM=  -12.4884
 kinetic energy error for atom=    0.0000 (will be added to EATOM!!)
 
 
 POSCAR: C H                                     
  positions in cartesian coordinates
  No initial velocities read in
 exchange correlation table for  LEXCH =        8
   RHO(1)=    0.500       N(1)  =     2000
   RHO(2)=  100.500       N(2)  =     4000
 


--------------------------------------------------------------------------------------------------------


 ion  position               nearest neighbor table
   1  0.022  0.025  0.023-   7 1.08   2 1.39   6 1.39
   2  0.035  0.987  0.023-   8 1.08   1 1.39   3 1.39
   3  0.011  0.957  0.014-   9 1.08   2 1.39   4 1.39
   4  0.972  0.965  0.005-  10 1.08   3 1.39   5 1.39
   5  0.959  0.003  0.006-  11 1.08   6 1.39   4 1.39
   6  0.984  0.032  0.015-  12 1.08   5 1.39   1 1.39
   7  0.041  0.048  0.030-   1 1.08
   8  0.065  0.981  0.029-   2 1.08
   9  0.021  0.928  0.013-   3 1.08
  10  0.953  0.942  0.998-   4 1.08
  11  0.929  0.008  1.000-   5 1.08
  12  0.973  0.061  0.016-   6 1.08
 
  LATTYP: Found a simple cubic cell.
 ALAT       =    35.0000000000
  
  Lattice vectors:
  
 A1 = (  35.0000000000,   0.0000000000,   0.0000000000)
 A2 = (   0.0000000000,  35.0000000000,   0.0000000000)
 A3 = (   0.0000000000,   0.0000000000,  35.0000000000)


Analysis of symmetry for initial positions (statically):
=====================================================================
 Subroutine PRICEL returns:
 Original cell was already a primitive cell.
 

 Routine SETGRP: Setting up the symmetry group for a 
 simple cubic supercell.


 Subroutine GETGRP returns: Found  1 space group operations
 (whereof  1 operations were pure point group operations)
 out of a pool of 48 trial point group operations.


The static configuration has the point symmetry C_1 .


Analysis of symmetry for dynamics (positions and initial velocities):
=====================================================================
 Subroutine PRICEL returns:
 Original cell was already a primitive cell.
 

 Routine SETGRP: Setting up the symmetry group for a 
 simple cubic supercell.


 Subroutine GETGRP returns: Found  1 space group operations
 (whereof  1 operations were pure point group operations)
 out of a pool of 48 trial point group operations.


The dynamic configuration has the point symmetry C_1 .
 
 
 KPOINTS: automatic mesh                          

Automatic generation of k-mesh.
Space group operators:
 irot       det(A)        alpha          n_x          n_y          n_z        tau_x        tau_y        tau_z
    1     1.000000     0.000000     1.000000     0.000000     0.000000     0.000000     0.000000     0.000000
 
 Subroutine IBZKPT returns following result:
 ===========================================
 
 Found      1 irreducible k-points:
 
 Following reciprocal coordinates:
            Coordinates               Weight
  0.000000  0.000000  0.000000      1.000000
 
 Following cartesian coordinates:
            Coordinates               Weight
  0.000000  0.000000  0.000000      1.000000
 


--------------------------------------------------------------------------------------------------------




 Dimension of arrays:
   k-points           NKPTS =      1   k-points in BZ     NKDIM =      1   number of bands    NBANDS=     22
   number of dos      NEDOS =    301   number of ions     NIONS =     12
   non local maximal  LDIM  =      5   non local SUM 2l+1 LMDIM =     13
   total plane-waves  NPLWV = ******
   max r-space proj   IRMAX =      1   max aug-charges    IRDMAX=  30635
   dimension x,y,z NGX =   480 NGY =  480 NGZ =  480
   dimension x,y,z NGXF=   960 NGYF=  960 NGZF=  960
   support grid    NGXF=   960 NGYF=  960 NGZF=  960
   ions per type =               6   6
 NGX,Y,Z   is equivalent  to a cutoff of  22.80, 22.80, 22.80 a.u.
 NGXF,Y,Z  is equivalent  to a cutoff of  45.60, 45.60, 45.60 a.u.


 I would recommend the setting:
   dimension x,y,z NGX =   457 NGY =  457 NGZ =  457
 SYSTEM =  C                                       
 POSCAR =  C H                                     

 Startparameter for this run:
   NWRITE =      2    write-flag & timer
   PREC   = acc       normal or accurate (medium, high low for compatibility)
   ISTART =      0    job   : 0-new  1-cont  2-samecut
   ICHARG =      2    charge: 1-file 2-atom 10-const
   ISPIN  =      1    spin polarized calculation?
   LNONCOLLINEAR =      F non collinear calculations
   LSORBIT =      F    spin-orbit coupling
   INIWAV =      1    electr: 0-lowe 1-rand  2-diag
   LASPH  =      T    aspherical Exc in radial PAW
   METAGGA=      F    non-selfconsistent MetaGGA calc.

 Electronic Relaxation 1
   ENCUT  = 1600.0 eV 117.60 Ry   10.84 a.u. 114.15114.15114.15*2*pi/ulx,y,z
   ENINI  = 1600.0     initial cutoff
   ENAUG  =  644.9 eV  augmentation charge cutoff
   NELM   =     60;   NELMIN=  2; NELMDL= -5     # of ELM steps 
   EDIFF  = 0.1E-06   stopping-criterion for ELM
   LREAL  =      F    real-space projection
   NLSPLINE    = F    spline interpolate recip. space projectors
   LCOMPAT=      F    compatible to vasp.4.4
   GGA_COMPAT  = T    GGA compatible to vasp.4.4-vasp.4.6
   LMAXPAW     = -100 max onsite density
   LMAXMIX     =    2 max onsite mixed and CHGCAR
   VOSKOWN=      0    Vosko Wilk Nusair interpolation
   ROPT   =    0.00000   0.00000
 Ionic relaxation
   EDIFFG = 0.1E-05   stopping-criterion for IOM
   NSW    =      0    number of steps for IOM
   NBLOCK =      1;   KBLOCK =      1    inner block; outer block 
   IBRION =     -1    ionic relax: 0-MD 1-quasi-New 2-CG
   NFREE  =      0    steps in history (QN), initial steepest desc. (CG)
   ISIF   =      2    stress and relaxation
   IWAVPR =     10    prediction:  0-non 1-charg 2-wave 3-comb
   ISYM   =      2    0-nonsym 1-usesym 2-fastsym
   LCORR  =      T    Harris-Foulkes like correction to forces

   POTIM  = 0.5000    time-step for ionic-motion
   TEIN   =    0.0    initial temperature
   TEBEG  =    0.0;   TEEND  =   0.0 temperature during run
   SMASS  =  -3.00    Nose mass-parameter (am)
   estimated Nose-frequenzy (Omega)   =  0.10E-29 period in steps =****** mass=  -0.280E-25a.u.
   SCALEE = 1.0000    scale energy and forces
   NPACO  =    256;   APACO  = 16.0  distance and # of slots for P.C.
   PSTRESS=    0.0 pullay stress

  Mass of Ions in am
   POMASS =  12.01  1.00
  Ionic Valenz
   ZVAL   =   4.00  1.00
  Atomic Wigner-Seitz radii
   RWIGS  =  -1.00 -1.00
  virtual crystal weights 
   VCA    =   1.00  1.00
   NELECT =      30.0000    total number of electrons
   NUPDOWN=      -1.0000    fix difference up-down

 DOS related values:
   EMIN   =  10.00;   EMAX   =-10.00  energy-range for DOS
   EFERMI =   0.00
   ISMEAR =     0;   SIGMA  =   0.01  broadening in eV -4-tet -1-fermi 0-gaus

 Electronic relaxation 2 (details)
   IALGO  =     38    algorithm
   LDIAG  =      T    sub-space diagonalisation (order eigenvalues)
   LSUBROT=      F    optimize rotation matrix (better conditioning)
   TURBO    =      0    0=normal 1=particle mesh
   IRESTART =      0    0=no restart 2=restart with 2 vectors
   NREBOOT  =      0    no. of reboots
   NMIN     =      0    reboot dimension
   EREF     =   0.00    reference energy to select bands
   IMIX   =      4    mixing-type and parameters
     AMIX     =   0.40;   BMIX     =  1.00
     AMIX_MAG =   1.60;   BMIX_MAG =  1.00
     AMIN     =   0.10
     WC   =   100.;   INIMIX=   1;  MIXPRE=   1;  MAXMIX= -45

 Intra band minimization:
   WEIMIN = 0.0000     energy-eigenvalue tresh-hold
   EBREAK =  0.11E-08  absolut break condition
   DEPER  =   0.30     relativ break condition  

   TIME   =   0.40     timestep for ELM

  volume/ion in A,a.u.               =    3572.92     24111.23
  Fermi-wavevector in a.u.,A,eV,Ry     =   0.145338  0.274650  0.287399  0.021123
  Thomas-Fermi vector in A             =   0.812913
 
 Write flags
   LWAVE  =      T    write WAVECAR
   LCHARG =      T    write CHGCAR
   LVTOT  =      F    write LOCPOT, total local potential
   LVHAR  =      F    write LOCPOT, Hartree potential only
   LELF   =      F    write electronic localiz. function (ELF)
   LORBIT =      0    0 simple, 1 ext, 2 COOP (PROOUT)


 Dipole corrections
   LMONO  =      F    monopole corrections only (constant potential shift)
   LDIPOL =      F    correct potential (dipole corrections)
   IDIPOL =      0    1-x, 2-y, 3-z, 4-all directions 
   EPSILON=  1.0000000 bulk dielectric constant

 Exchange correlation treatment:
   GGA     =    --    GGA type
   LEXCH   =     8    internal setting for exchange type
   VOSKOWN=      0    Vosko Wilk Nusair interpolation
   LHFCALC =     F    Hartree Fock is set to
   LHFONE  =     F    Hartree Fock one center treatment
   AEXX    =    0.0000 exact exchange contribution

 Linear response parameters
   LEPSILON=     F    determine dielectric tensor
   LRPA    =     F    only Hartree local field effects (RPA)
   LNABLA  =     F    use nabla operator in PAW spheres
   LVEL    =     F    velocity operator in full k-point grid
   LINTERFAST=   F  fast interpolation
   KINTER  =     0    interpolate to denser k-point grid
   CSHIFT  =0.1000    complex shift for real part using Kramers Kronig
   OMEGAMAX=  -1.0    maximum frequency
   DEG_THRESHOLD= 0.2000000E-02 threshold for treating states as degnerate
   RTIME   =    0.100 relaxation time in fs

 Orbital magnetization related:
   ORBITALMAG=     F  switch on orbital magnetization
   LCHIMAG   =     F  perturbation theory with respect to B field
   DQ        =  0.001000  dq finite difference perturbation B field



--------------------------------------------------------------------------------------------------------


 Static calculation
 charge density and potential will be updated during run
 non-spin polarized calculation
 Variant of blocked Davidson
 Davidson routine will perform the subspace rotation
 perform sub-space diagonalisation
    after iterative eigenvector-optimisation
 modified Broyden-mixing scheme, WC =      100.0
 initial mixing is a Kerker type mixing with AMIX =  0.4000 and BMIX =      1.0000
 Hartree-type preconditioning will be used
 using additional bands            7
 reciprocal scheme for non local part
 calculate Harris-corrections to forces 
   (improved forces if not selfconsistent)
 use gradient corrections 
 use of overlap-Matrix (Vanderbilt PP)
 Gauss-broadening in eV      SIGMA  =   0.01


--------------------------------------------------------------------------------------------------------


  energy-cutoff  :     1600.00
  volume of cell :    42875.00
      direct lattice vectors                 reciprocal lattice vectors
    35.000000000  0.000000000  0.000000000     0.028571429  0.000000000  0.000000000
     0.000000000 35.000000000  0.000000000     0.000000000  0.028571429  0.000000000
     0.000000000  0.000000000 35.000000000     0.000000000  0.000000000  0.028571429

  length of vectors
    35.000000000 35.000000000 35.000000000     0.028571429  0.028571429  0.028571429


 
 k-points in units of 2pi/SCALE and weight: automatic mesh                          
   0.00000000  0.00000000  0.00000000       1.000
 
 k-points in reciprocal lattice and weights: automatic mesh                          
   0.00000000  0.00000000  0.00000000       1.000
 
 position of ions in fractional coordinates (direct lattice) 
   0.02187273  0.02480698  0.02345688
   0.03536150  0.98734748  0.02268251
   0.01063535  0.95747038  0.01363625
   0.97243048  0.96505795  0.00533938
   0.95894100  0.00252587  0.00609363
   0.98365981  0.03240069  0.01516608
   0.04107076  0.04800019  0.03043151
   0.06502168  0.98147034  0.02907747
   0.02109108  0.92839771  0.01305875
   0.95324401  0.94186969  0.99834933
   0.92929473  0.00840863  0.99967236
   0.97320859  0.06147745  0.01574508
 
 position of ions in cartesian coordinates  (Angst):
   0.76554546  0.86824433  0.82099095
   1.23765260 34.55716192  0.79388795
   0.37223723 33.51146334  0.47726862
  34.03506682 33.77702838  0.18687833
  33.56293491  0.08840558  0.21327714
  34.42809351  1.13402416  0.53081280
   1.43747647  1.68000664  1.06510281
   2.27575877 34.35146192  1.01771141
   0.73818789 32.49391988  0.45705609
  33.36354052 32.96543921 34.94222638
  32.52531568  0.29430216 34.98853254
  34.06230065  2.15171058  0.55107764
 


--------------------------------------------------------------------------------------------------------


 use parallel FFT for wavefunctions z direction half grid
 k-point  1 :   0.0000 0.0000 0.0000  plane waves: 3115599

 maximum and minimum number of plane-waves per node :    259651   259618

 maximum number of plane-waves:   3115599
 maximum index in each direction: 
   IXMAX=  114   IYMAX=  114   IZMAX=  114
   IXMIN= -114   IYMIN= -114   IZMIN=    0

 NGX is ok and might be reduce to 458
 NGY is ok and might be reduce to 458
 NGZ is ok and might be reduce to 458

 parallel 3D FFT for wavefunctions:
    minimum data exchange during FFTs selected (reduces bandwidth)
 parallel 3D FFT for charge:
    minimum data exchange during FFTs selected (reduces bandwidth)


 total amount of memory used by VASP on root node  7395707. kBytes
========================================================================

   base      :      30000. kBytes
   nonl-proj :     103856. kBytes
   fftplans  :    2666593. kBytes
   grid      :    4503859. kBytes
   one-center:          4. kBytes
   wavefun   :      91395. kBytes
 
     INWAV:  cpu time    0.0000: real time    0.0000
 Broyden mixing: mesh for mixing (old mesh)
   NGX =229   NGY =229   NGZ =229
  (NGX  =960   NGY  =960   NGZ  =960)
  gives a total of ****** points

 initial charge density was supplied:
 charge density of overlapping atoms calculated
 number of electron      30.0000000 magnetization 
 keeping initial charge density in first step


--------------------------------------------------------------------------------------------------------


 Maximum index for augmentation-charges         2533 (set IRDMAX)


--------------------------------------------------------------------------------------------------------


 First call to EWALD:  gamma=   0.051
 Maximum number of real-space cells 3x 3x 3
 Maximum number of reciprocal cells 3x 3x 3

 FEWALD executed in parallel
    FEWALD:  cpu time    0.0012: real time    0.0012


----------------------------------------- Iteration    1(   1)  ---------------------------------------


    POTLOK:  cpu time   33.8561: real time   33.9481
    SETDIJ:  cpu time    0.1425: real time    0.1431
     EDDAV:  cpu time   26.8182: real time   26.8914
       DOS:  cpu time    0.0001: real time    0.0001
    --------------------------------------------
      LOOP:  cpu time   60.8188: real time   60.9863

 eigenvalue-minimisations  :    44
 total energy-change (2. order) : 0.3875660E+03  (-0.4819576E+03)
 number of electron      30.0000000 magnetization 
 augmentation part       30.0000000 magnetization 

 Free energy of the ion-electron system (eV)
  ---------------------------------------------------
  alpha Z        PSCENC =         0.09576100
  Ewald energy   TEWEN  =      2286.53307223
  -Hartree energ DENC   =     -2895.88472365
  -exchange      EXHF   =         0.00000000
  -V(xc)+E(xc)   XCENC  =        95.03225412
  PAW double counting   =       660.43565674     -667.40614127
  entropy T*S    EENTRO =        -0.00065724
  eigenvalues    EBANDS =       -49.10404412
  atomic energy  EATOM  =       957.86478714
  Solvation  Ediel_sol  =         0.00000000
  ---------------------------------------------------
  free energy    TOTEN  =       387.56596493 eV

  energy without entropy =      387.56662217  energy(sigma->0) =      387.56629355


--------------------------------------------------------------------------------------------------------




----------------------------------------- Iteration    1(   2)  ---------------------------------------


     EDDAV:  cpu time   44.8671: real time   44.9900
       DOS:  cpu time    0.0000: real time    0.0000
    --------------------------------------------
      LOOP:  cpu time   44.8689: real time   44.9947

 eigenvalue-minimisations  :    88
 total energy-change (2. order) :-0.2211808E+03  (-0.2153129E+03)
 number of electron      30.0000000 magnetization 
 augmentation part       30.0000000 magnetization 

 Free energy of the ion-electron system (eV)
  ---------------------------------------------------
  alpha Z        PSCENC =         0.09576100
  Ewald energy   TEWEN  =      2286.53307223
  -Hartree energ DENC   =     -2895.88472365
  -exchange      EXHF   =         0.00000000
  -V(xc)+E(xc)   XCENC  =        95.03225412
  PAW double counting   =       660.43565674     -667.40614127
  entropy T*S    EENTRO =        -0.00000000
  eigenvalues    EBANDS =      -270.28554069
  atomic energy  EATOM  =       957.86478714
  Solvation  Ediel_sol  =         0.00000000
  ---------------------------------------------------
  free energy    TOTEN  =       166.38512560 eV

  energy without entropy =      166.38512560  energy(sigma->0) =      166.38512560


--------------------------------------------------------------------------------------------------------




----------------------------------------- Iteration    1(   3)  ---------------------------------------


     EDDAV:  cpu time   34.8636: real time   34.9591
       DOS:  cpu time    0.0000: real time    0.0000
    --------------------------------------------
      LOOP:  cpu time   34.8662: real time   34.9645

 eigenvalue-minimisations  :    64
 total energy-change (2. order) :-0.1750788E+03  (-0.1666653E+03)
 number of electron      30.0000000 magnetization 
 augmentation part       30.0000000 magnetization 

 Free energy of the ion-electron system (eV)
  ---------------------------------------------------
  alpha Z        PSCENC =         0.09576100
  Ewald energy   TEWEN  =      2286.53307223
  -Hartree energ DENC   =     -2895.88472365
  -exchange      EXHF   =         0.00000000
  -V(xc)+E(xc)   XCENC  =        95.03225412
  PAW double counting   =       660.43565674     -667.40614127
  entropy T*S    EENTRO =        -0.00000000
  eigenvalues    EBANDS =      -445.36437152
  atomic energy  EATOM  =       957.86478714
  Solvation  Ediel_sol  =         0.00000000
  ---------------------------------------------------
  free energy    TOTEN  =        -8.69370523 eV

  energy without entropy =       -8.69370523  energy(sigma->0) =       -8.69370523


--------------------------------------------------------------------------------------------------------




----------------------------------------- Iteration    1(   4)  ---------------------------------------


     EDDAV:  cpu time   31.4569: real time   31.5432
       DOS:  cpu time    0.0000: real time    0.0000
    --------------------------------------------
      LOOP:  cpu time   31.4596: real time   31.5484

 eigenvalue-minimisations  :    56
 total energy-change (2. order) :-0.6734304E+02  (-0.6726468E+02)
 number of electron      30.0000000 magnetization 
 augmentation part       30.0000000 magnetization 

 Free energy of the ion-electron system (eV)
  ---------------------------------------------------
  alpha Z        PSCENC =         0.09576100
  Ewald energy   TEWEN  =      2286.53307223
  -Hartree energ DENC   =     -2895.88472365
  -exchange      EXHF   =         0.00000000
  -V(xc)+E(xc)   XCENC  =        95.03225412
  PAW double counting   =       660.43565674     -667.40614127
  entropy T*S    EENTRO =        -0.00000000
  eigenvalues    EBANDS =      -512.70741126
  atomic energy  EATOM  =       957.86478714
  Solvation  Ediel_sol  =         0.00000000
  ---------------------------------------------------
  free energy    TOTEN  =       -76.03674497 eV

  energy without entropy =      -76.03674497  energy(sigma->0) =      -76.03674497


--------------------------------------------------------------------------------------------------------




----------------------------------------- Iteration    1(   5)  ---------------------------------------


     EDDAV:  cpu time   31.5326: real time   31.6192
       DOS:  cpu time    0.0000: real time    0.0000
    CHARGE:  cpu time    5.0651: real time    5.0789
    MIXING:  cpu time    0.9561: real time    0.9588
    --------------------------------------------
      LOOP:  cpu time   37.5567: real time   37.6628

 eigenvalue-minimisations  :    56
 total energy-change (2. order) :-0.8290809E+01  (-0.8279473E+01)
 number of electron      30.0000000 magnetization 
 augmentation part        0.5464767 magnetization 

 Broyden mixing:
  rms(total) = 0.13332E+01    rms(broyden)= 0.13332E+01
  rms(prec ) = 0.13824E+01
  weight for this iteration     100.00

 Free energy of the ion-electron system (eV)
  ---------------------------------------------------
  alpha Z        PSCENC =         0.09576100
  Ewald energy   TEWEN  =      2286.53307223
  -Hartree energ DENC   =     -2895.88472365
  -exchange      EXHF   =         0.00000000
  -V(xc)+E(xc)   XCENC  =        95.03225412
  PAW double counting   =       660.43565674     -667.40614127
  entropy T*S    EENTRO =        -0.00000000
  eigenvalues    EBANDS =      -520.99822021
  atomic energy  EATOM  =       957.86478714
  Solvation  Ediel_sol  =         0.00000000
  ---------------------------------------------------
  free energy    TOTEN  =       -84.32755392 eV

  energy without entropy =      -84.32755392  energy(sigma->0) =      -84.32755392


--------------------------------------------------------------------------------------------------------




----------------------------------------- Iteration    1(   6)  ---------------------------------------


    POTLOK:  cpu time   33.0378: real time   33.1279
    SETDIJ:  cpu time    0.1285: real time    0.1288
     EDDAV:  cpu time   38.0959: real time   38.2002
       DOS:  cpu time    0.0000: real time    0.0000
    CHARGE:  cpu time    4.9663: real time    4.9799
    MIXING:  cpu time    0.9894: real time    0.9921
    --------------------------------------------
      LOOP:  cpu time   77.2197: real time   77.4333

 eigenvalue-minimisations  :    72
 total energy-change (2. order) : 0.6088294E+01  (-0.8599952E+00)
 number of electron      30.0000000 magnetization 
 augmentation part        0.4732141 magnetization 

 Broyden mixing:
  rms(total) = 0.68655E+00    rms(broyden)= 0.68655E+00
  rms(prec ) = 0.71200E+00
  weight for this iteration     100.00

 eigenvalues of (default mixing * dielectric matrix)
  average eigenvalue GAMMA=   1.8759
  1.8759

 Free energy of the ion-electron system (eV)
  ---------------------------------------------------
  alpha Z        PSCENC =         0.09576100
  Ewald energy   TEWEN  =      2286.53307223
  -Hartree energ DENC   =     -2958.19083375
  -exchange      EXHF   =         0.00000000
  -V(xc)+E(xc)   XCENC  =        97.95581867
  PAW double counting   =       949.72921823     -957.54041096
  entropy T*S    EENTRO =        -0.00000000
  eigenvalues    EBANDS =      -454.68667285
  atomic energy  EATOM  =       957.86478714
  Solvation  Ediel_sol  =         0.00000000
  ---------------------------------------------------
  free energy    TOTEN  =       -78.23926029 eV

  energy without entropy =      -78.23926029  energy(sigma->0) =      -78.23926029


--------------------------------------------------------------------------------------------------------




----------------------------------------- Iteration    1(   7)  ---------------------------------------


    POTLOK:  cpu time   33.1018: real time   33.1921
    SETDIJ:  cpu time    0.1385: real time    0.1388
     EDDAV:  cpu time   38.1763: real time   38.2810
       DOS:  cpu time    0.0000: real time    0.0000
    CHARGE:  cpu time    4.9559: real time    4.9695
    MIXING:  cpu time    1.0207: real time    1.0235
    --------------------------------------------
      LOOP:  cpu time   77.3951: real time   77.6093

 eigenvalue-minimisations  :    72
 total energy-change (2. order) : 0.1957339E+01  (-0.8185943E+00)
 number of electron      30.0000000 magnetization 
 augmentation part        0.4012430 magnetization 

 Broyden mixing:
  rms(total) = 0.23067E+00    rms(broyden)= 0.23067E+00
  rms(prec ) = 0.23771E+00
  weight for this iteration     100.00

 eigenvalues of (default mixing * dielectric matrix)
  average eigenvalue GAMMA=   2.0590
  2.0590  2.0590

 Free energy of the ion-electron system (eV)
  ---------------------------------------------------
  alpha Z        PSCENC =         0.09576100
  Ewald energy   TEWEN  =      2286.53307223
  -Hartree energ DENC   =     -3024.17701461
  -exchange      EXHF   =         0.00000000
  -V(xc)+E(xc)   XCENC  =       101.29772045
  PAW double counting   =      1273.72764435    -1282.19683353
  entropy T*S    EENTRO =        -0.00000000
  eigenvalues    EBANDS =      -389.42705881
  atomic energy  EATOM  =       957.86478714
  Solvation  Ediel_sol  =         0.00000000
  ---------------------------------------------------
  free energy    TOTEN  =       -76.28192178 eV

  energy without entropy =      -76.28192178  energy(sigma->0) =      -76.28192178


--------------------------------------------------------------------------------------------------------




----------------------------------------- Iteration    1(   8)  ---------------------------------------


    POTLOK:  cpu time   33.1534: real time   33.2438
    SETDIJ:  cpu time    0.1319: real time    0.1322
     EDDAV:  cpu time   34.8135: real time   34.9089
       DOS:  cpu time    0.0000: real time    0.0000
    CHARGE:  cpu time    4.9552: real time    4.9688
    MIXING:  cpu time    1.0550: real time    1.0578
    --------------------------------------------
      LOOP:  cpu time   74.1108: real time   74.3161

 eigenvalue-minimisations  :    64
 total energy-change (2. order) : 0.1122380E+00  (-0.9555805E-01)
 number of electron      30.0000000 magnetization 
 augmentation part        0.4231919 magnetization 

 Broyden mixing:
  rms(total) = 0.86928E-01    rms(broyden)= 0.86928E-01
  rms(prec ) = 0.95953E-01
  weight for this iteration     100.00

 eigenvalues of (default mixing * dielectric matrix)
  average eigenvalue GAMMA=   1.6686
  0.9288  2.3148  1.7620

 Free energy of the ion-electron system (eV)
  ---------------------------------------------------
  alpha Z        PSCENC =         0.09576100
  Ewald energy   TEWEN  =      2286.53307223
  -Hartree energ DENC   =     -3023.91347013
  -exchange      EXHF   =         0.00000000
  -V(xc)+E(xc)   XCENC  =       101.40700456
  PAW double counting   =      1243.25926507    -1251.45819402
  entropy T*S    EENTRO =        -0.00000000
  eigenvalues    EBANDS =      -389.95790963
  atomic energy  EATOM  =       957.86478714
  Solvation  Ediel_sol  =         0.00000000
  ---------------------------------------------------
  free energy    TOTEN  =       -76.16968378 eV

  energy without entropy =      -76.16968378  energy(sigma->0) =      -76.16968378


--------------------------------------------------------------------------------------------------------




----------------------------------------- Iteration    1(   9)  ---------------------------------------


    POTLOK:  cpu time   33.1878: real time   33.2783
    SETDIJ:  cpu time    0.1308: real time    0.1311
     EDDAV:  cpu time   34.8708: real time   34.9662
       DOS:  cpu time    0.0000: real time    0.0000
    CHARGE:  cpu time    4.9554: real time    4.9690
    MIXING:  cpu time    1.0911: real time    1.0940
    --------------------------------------------
      LOOP:  cpu time   74.2377: real time   74.4436

 eigenvalue-minimisations  :    64
 total energy-change (2. order) : 0.7795770E-01  (-0.1689691E-01)
 number of electron      30.0000000 magnetization 
 augmentation part        0.4129563 magnetization 

 Broyden mixing:
  rms(total) = 0.25864E-01    rms(broyden)= 0.25864E-01
  rms(prec ) = 0.33891E-01
  weight for this iteration     100.00

 eigenvalues of (default mixing * dielectric matrix)
  average eigenvalue GAMMA=   1.5493
  2.2927  1.9210  0.9916  0.9916

 Free energy of the ion-electron system (eV)
  ---------------------------------------------------
  alpha Z        PSCENC =         0.09576100
  Ewald energy   TEWEN  =      2286.53307223
  -Hartree energ DENC   =     -3034.63925227
  -exchange      EXHF   =         0.00000000
  -V(xc)+E(xc)   XCENC  =       101.85978895
  PAW double counting   =      1281.69002299    -1289.97763364
  entropy T*S    EENTRO =        -0.00000000
  eigenvalues    EBANDS =      -379.51827246
  atomic energy  EATOM  =       957.86478714
  Solvation  Ediel_sol  =         0.00000000
  ---------------------------------------------------
  free energy    TOTEN  =       -76.09172608 eV

  energy without entropy =      -76.09172608  energy(sigma->0) =      -76.09172608


--------------------------------------------------------------------------------------------------------




----------------------------------------- Iteration    1(  10)  ---------------------------------------


    POTLOK:  cpu time   33.1946: real time   33.2854
    SETDIJ:  cpu time    0.1345: real time    0.1349
     EDDAV:  cpu time   33.1921: real time   33.2829
       DOS:  cpu time    0.0000: real time    0.0000
    CHARGE:  cpu time    4.9536: real time    4.9671
    MIXING:  cpu time    1.1197: real time    1.1227
    --------------------------------------------
      LOOP:  cpu time   72.5964: real time   72.7978

 eigenvalue-minimisations  :    60
 total energy-change (2. order) : 0.1176239E-01  (-0.2202122E-02)
 number of electron      30.0000000 magnetization 
 augmentation part        0.4105999 magnetization 

 Broyden mixing:
  rms(total) = 0.14224E-01    rms(broyden)= 0.14224E-01
  rms(prec ) = 0.20834E-01
  weight for this iteration     100.00

 eigenvalues of (default mixing * dielectric matrix)
  average eigenvalue GAMMA=   1.8190
  3.0196  2.5055  1.5559  1.0069  1.0069

 Free energy of the ion-electron system (eV)
  ---------------------------------------------------
  alpha Z        PSCENC =         0.09576100
  Ewald energy   TEWEN  =      2286.53307223
  -Hartree energ DENC   =     -3039.47524723
  -exchange      EXHF   =         0.00000000
  -V(xc)+E(xc)   XCENC  =       101.96826884
  PAW double counting   =      1282.60198484    -1290.89422976
  entropy T*S    EENTRO =        -0.00000000
  eigenvalues    EBANDS =      -374.77436074
  atomic energy  EATOM  =       957.86478714
  Solvation  Ediel_sol  =         0.00000000
  ---------------------------------------------------
  free energy    TOTEN  =       -76.07996369 eV

  energy without entropy =      -76.07996369  energy(sigma->0) =      -76.07996369


--------------------------------------------------------------------------------------------------------




----------------------------------------- Iteration    1(  11)  ---------------------------------------


    POTLOK:  cpu time   33.2056: real time   33.2964
    SETDIJ:  cpu time    0.1287: real time    0.1290
     EDDAV:  cpu time   26.5418: real time   26.6143
       DOS:  cpu time    0.0000: real time    0.0000
    CHARGE:  cpu time    4.9542: real time    4.9678
    MIXING:  cpu time    1.1634: real time    1.1665
    --------------------------------------------
      LOOP:  cpu time   65.9956: real time   66.1786

 eigenvalue-minimisations  :    44
 total energy-change (2. order) : 0.1113993E-01  (-0.1903772E-02)
 number of electron      30.0000000 magnetization 
 augmentation part        0.4086946 magnetization 

 Broyden mixing:
  rms(total) = 0.92664E-02    rms(broyden)= 0.92664E-02
  rms(prec ) = 0.11997E-01
  weight for this iteration     100.00

 eigenvalues of (default mixing * dielectric matrix)
  average eigenvalue GAMMA=   1.9128
  3.9350  2.2701  1.9541  0.9845  1.1665  1.1665

 Free energy of the ion-electron system (eV)
  ---------------------------------------------------
  alpha Z        PSCENC =         0.09576100
  Ewald energy   TEWEN  =      2286.53307223
  -Hartree energ DENC   =     -3047.14084422
  -exchange      EXHF   =         0.00000000
  -V(xc)+E(xc)   XCENC  =       102.11979220
  PAW double counting   =      1280.63812242    -1288.93124971
  entropy T*S    EENTRO =        -0.00000000
  eigenvalues    EBANDS =      -367.24826482
  atomic energy  EATOM  =       957.86478714
  Solvation  Ediel_sol  =         0.00000000
  ---------------------------------------------------
  free energy    TOTEN  =       -76.06882375 eV

  energy without entropy =      -76.06882375  energy(sigma->0) =      -76.06882375


--------------------------------------------------------------------------------------------------------




----------------------------------------- Iteration    1(  12)  ---------------------------------------


    POTLOK:  cpu time   33.2287: real time   33.3196
    SETDIJ:  cpu time    0.1302: real time    0.1305
     EDDAV:  cpu time   38.2514: real time   38.3561
       DOS:  cpu time    0.0000: real time    0.0000
    CHARGE:  cpu time    4.9555: real time    4.9691
    MIXING:  cpu time    1.2024: real time    1.2056
    --------------------------------------------
      LOOP:  cpu time   77.7701: real time   77.9856

 eigenvalue-minimisations  :    72
 total energy-change (2. order) :-0.4766966E-02  (-0.2741240E-03)
 number of electron      30.0000000 magnetization 
 augmentation part        0.4086170 magnetization 

 Broyden mixing:
  rms(total) = 0.52480E-02    rms(broyden)= 0.52480E-02
  rms(prec ) = 0.69521E-02
  weight for this iteration     100.00

 eigenvalues of (default mixing * dielectric matrix)
  average eigenvalue GAMMA=   2.0275
  4.8351  2.5972  2.1348  1.3792  1.2584  0.9938  0.9938

 Free energy of the ion-electron system (eV)
  ---------------------------------------------------
  alpha Z        PSCENC =         0.09576100
  Ewald energy   TEWEN  =      2286.53307223
  -Hartree energ DENC   =     -3049.92255670
  -exchange      EXHF   =         0.00000000
  -V(xc)+E(xc)   XCENC  =       102.16371042
  PAW double counting   =      1280.13926648    -1288.43067698
  entropy T*S    EENTRO =        -0.00000000
  eigenvalues    EBANDS =      -364.51695431
  atomic energy  EATOM  =       957.86478714
  Solvation  Ediel_sol  =         0.00000000
  ---------------------------------------------------
  free energy    TOTEN  =       -76.07359072 eV

  energy without entropy =      -76.07359072  energy(sigma->0) =      -76.07359072


--------------------------------------------------------------------------------------------------------




----------------------------------------- Iteration    1(  13)  ---------------------------------------


    POTLOK:  cpu time   33.2537: real time   33.3445
    SETDIJ:  cpu time    0.1235: real time    0.1238
     EDDAV:  cpu time   31.6192: real time   31.7058
       DOS:  cpu time    0.0000: real time    0.0000
    CHARGE:  cpu time    4.9605: real time    4.9742
    MIXING:  cpu time    1.2522: real time    1.2556
    --------------------------------------------
      LOOP:  cpu time   71.2110: real time   71.4088

 eigenvalue-minimisations  :    56
 total energy-change (2. order) :-0.9930894E-02  (-0.1217370E-03)
 number of electron      30.0000000 magnetization 
 augmentation part        0.4088274 magnetization 

 Broyden mixing:
  rms(total) = 0.27340E-02    rms(broyden)= 0.27340E-02
  rms(prec ) = 0.39058E-02
  weight for this iteration     100.00

 eigenvalues of (default mixing * dielectric matrix)
  average eigenvalue GAMMA=   2.2236
  5.4587  3.4424  2.3524  2.0801  1.3004  1.1502  1.0025  1.0025

 Free energy of the ion-electron system (eV)
  ---------------------------------------------------
  alpha Z        PSCENC =         0.09576100
  Ewald energy   TEWEN  =      2286.53307223
  -Hartree energ DENC   =     -3050.68035784
  -exchange      EXHF   =         0.00000000
  -V(xc)+E(xc)   XCENC  =       102.14555634
  PAW double counting   =      1278.12170221    -1286.40984246
  entropy T*S    EENTRO =        -0.00000000
  eigenvalues    EBANDS =      -363.75420023
  atomic energy  EATOM  =       957.86478714
  Solvation  Ediel_sol  =         0.00000000
  ---------------------------------------------------
  free energy    TOTEN  =       -76.08352162 eV

  energy without entropy =      -76.08352162  energy(sigma->0) =      -76.08352162


--------------------------------------------------------------------------------------------------------




----------------------------------------- Iteration    1(  14)  ---------------------------------------


    POTLOK:  cpu time   33.2289: real time   33.3191
    SETDIJ:  cpu time    0.1324: real time    0.1327
     EDDAV:  cpu time   34.8184: real time   34.9138
       DOS:  cpu time    0.0000: real time    0.0000
    CHARGE:  cpu time    4.9527: real time    4.9663
    MIXING:  cpu time    1.3028: real time    1.3063
    --------------------------------------------
      LOOP:  cpu time   74.4372: real time   74.6431

 eigenvalue-minimisations  :    64
 total energy-change (2. order) :-0.1006751E-01  (-0.1743770E-03)
 number of electron      30.0000000 magnetization 
 augmentation part        0.4091774 magnetization 

 Broyden mixing:
  rms(total) = 0.22966E-02    rms(broyden)= 0.22966E-02
  rms(prec ) = 0.26722E-02
  weight for this iteration     100.00

 eigenvalues of (default mixing * dielectric matrix)
  average eigenvalue GAMMA=   2.2150
  6.2542  3.7806  2.3577  1.9750  1.3528  1.3528  0.9716  0.9716  0.9186

 Free energy of the ion-electron system (eV)
  ---------------------------------------------------
  alpha Z        PSCENC =         0.09576100
  Ewald energy   TEWEN  =      2286.53307223
  -Hartree energ DENC   =     -3051.35745682
  -exchange      EXHF   =         0.00000000
  -V(xc)+E(xc)   XCENC  =       102.13284509
  PAW double counting   =      1277.92066443    -1286.20621805
  entropy T*S    EENTRO =        -0.00000000
  eigenvalues    EBANDS =      -363.07704414
  atomic energy  EATOM  =       957.86478714
  Solvation  Ediel_sol  =         0.00000000
  ---------------------------------------------------
  free energy    TOTEN  =       -76.09358913 eV

  energy without entropy =      -76.09358913  energy(sigma->0) =      -76.09358913


--------------------------------------------------------------------------------------------------------




----------------------------------------- Iteration    1(  15)  ---------------------------------------


    POTLOK:  cpu time   33.2361: real time   33.3267
    SETDIJ:  cpu time    0.1265: real time    0.1268
     EDDAV:  cpu time   38.1649: real time   38.2687
       DOS:  cpu time    0.0000: real time    0.0000
    CHARGE:  cpu time    4.9569: real time    4.9705
    MIXING:  cpu time    1.3529: real time    1.3568
    --------------------------------------------
      LOOP:  cpu time   77.8391: real time   78.0540

 eigenvalue-minimisations  :    72
 total energy-change (2. order) :-0.2342426E-02  (-0.2042015E-04)
 number of electron      30.0000000 magnetization 
 augmentation part        0.4089251 magnetization 

 Broyden mixing:
  rms(total) = 0.11983E-02    rms(broyden)= 0.11983E-02
  rms(prec ) = 0.14946E-02
  weight for this iteration     100.00

 eigenvalues of (default mixing * dielectric matrix)
  average eigenvalue GAMMA=   2.4009
  7.2844  4.5611  2.4691  2.4691  1.5564  1.5564  0.9882  0.9882  1.0681  1.0681

 Free energy of the ion-electron system (eV)
  ---------------------------------------------------
  alpha Z        PSCENC =         0.09576100
  Ewald energy   TEWEN  =      2286.53307223
  -Hartree energ DENC   =     -3051.61238563
  -exchange      EXHF   =         0.00000000
  -V(xc)+E(xc)   XCENC  =       102.13223975
  PAW double counting   =      1278.17139145    -1286.45842477
  entropy T*S    EENTRO =        -0.00000000
  eigenvalues    EBANDS =      -362.82237272
  atomic energy  EATOM  =       957.86478714
  Solvation  Ediel_sol  =         0.00000000
  ---------------------------------------------------
  free energy    TOTEN  =       -76.09593155 eV

  energy without entropy =      -76.09593155  energy(sigma->0) =      -76.09593155


--------------------------------------------------------------------------------------------------------




----------------------------------------- Iteration    1(  16)  ---------------------------------------


    POTLOK:  cpu time   33.2346: real time   33.3251
    SETDIJ:  cpu time    0.1236: real time    0.1239
     EDDAV:  cpu time   32.2743: real time   32.3624
       DOS:  cpu time    0.0000: real time    0.0000
    CHARGE:  cpu time    4.9505: real time    4.9640
    MIXING:  cpu time    1.4183: real time    1.4223
    --------------------------------------------
      LOOP:  cpu time   72.0032: real time   72.2021

 eigenvalue-minimisations  :    58
 total energy-change (2. order) :-0.2919039E-02  (-0.3041215E-04)
 number of electron      30.0000000 magnetization 
 augmentation part        0.4089686 magnetization 

 Broyden mixing:
  rms(total) = 0.77220E-03    rms(broyden)= 0.77220E-03
  rms(prec ) = 0.88968E-03
  weight for this iteration     100.00

 eigenvalues of (default mixing * dielectric matrix)
  average eigenvalue GAMMA=   2.3955
  7.6035  4.8244  2.9332  2.2090  2.1119  1.3701  1.3701  1.0114  1.0114  0.9527
  0.9527

 Free energy of the ion-electron system (eV)
  ---------------------------------------------------
  alpha Z        PSCENC =         0.09576100
  Ewald energy   TEWEN  =      2286.53307223
  -Hartree energ DENC   =     -3051.71013768
  -exchange      EXHF   =         0.00000000
  -V(xc)+E(xc)   XCENC  =       102.12656936
  PAW double counting   =      1278.15457322    -1286.44136811
  entropy T*S    EENTRO =        -0.00000000
  eigenvalues    EBANDS =      -362.72210775
  atomic energy  EATOM  =       957.86478714
  Solvation  Ediel_sol  =         0.00000000
  ---------------------------------------------------
  free energy    TOTEN  =       -76.09885059 eV

  energy without entropy =      -76.09885059  energy(sigma->0) =      -76.09885059


--------------------------------------------------------------------------------------------------------




----------------------------------------- Iteration    1(  17)  ---------------------------------------


    POTLOK:  cpu time   33.2325: real time   33.3232
    SETDIJ:  cpu time    0.1256: real time    0.1259
     EDDAV:  cpu time   38.1537: real time   38.2582
       DOS:  cpu time    0.0000: real time    0.0000
    CHARGE:  cpu time    4.9543: real time    4.9679
    MIXING:  cpu time    1.4781: real time    1.4824
    --------------------------------------------
      LOOP:  cpu time   77.9460: real time   78.1622

 eigenvalue-minimisations  :    72
 total energy-change (2. order) :-0.6592258E-03  (-0.7073099E-05)
 number of electron      30.0000000 magnetization 
 augmentation part        0.4087608 magnetization 

 Broyden mixing:
  rms(total) = 0.80512E-03    rms(broyden)= 0.80512E-03
  rms(prec ) = 0.87124E-03
  weight for this iteration     100.00

 eigenvalues of (default mixing * dielectric matrix)
  average eigenvalue GAMMA=   2.4198
  8.1104  5.1430  3.0756  2.3646  2.0586  1.8361  1.4334  1.0721  1.0721  0.9883
  0.9883  0.8951

 Free energy of the ion-electron system (eV)
  ---------------------------------------------------
  alpha Z        PSCENC =         0.09576100
  Ewald energy   TEWEN  =      2286.53307223
  -Hartree energ DENC   =     -3051.90518718
  -exchange      EXHF   =         0.00000000
  -V(xc)+E(xc)   XCENC  =       102.13148912
  PAW double counting   =      1278.53803326    -1286.82637037
  entropy T*S    EENTRO =        -0.00000000
  eigenvalues    EBANDS =      -362.53109502
  atomic energy  EATOM  =       957.86478714
  Solvation  Ediel_sol  =         0.00000000
  ---------------------------------------------------
  free energy    TOTEN  =       -76.09950982 eV

  energy without entropy =      -76.09950982  energy(sigma->0) =      -76.09950982


--------------------------------------------------------------------------------------------------------




----------------------------------------- Iteration    1(  18)  ---------------------------------------


    POTLOK:  cpu time   33.2137: real time   33.3042
    SETDIJ:  cpu time    0.1328: real time    0.1331
     EDDAV:  cpu time   32.3260: real time   32.4147
       DOS:  cpu time    0.0000: real time    0.0000
    CHARGE:  cpu time    4.9587: real time    4.9722
    MIXING:  cpu time    1.5402: real time    1.5443
    --------------------------------------------
      LOOP:  cpu time   72.1733: real time   72.3733

 eigenvalue-minimisations  :    58
 total energy-change (2. order) :-0.4953129E-03  (-0.2815210E-05)
 number of electron      30.0000000 magnetization 
 augmentation part        0.4088588 magnetization 

 Broyden mixing:
  rms(total) = 0.14792E-03    rms(broyden)= 0.14792E-03
  rms(prec ) = 0.19972E-03
  weight for this iteration     100.00

 eigenvalues of (default mixing * dielectric matrix)
  average eigenvalue GAMMA=   2.4878
  8.4697  5.6852  3.7552  2.6846  2.2210  1.9170  1.4353  1.1584  1.1584  0.9801
  0.9801  0.9776  0.9183

 Free energy of the ion-electron system (eV)
  ---------------------------------------------------
  alpha Z        PSCENC =         0.09576100
  Ewald energy   TEWEN  =      2286.53307223
  -Hartree energ DENC   =     -3051.86473105
  -exchange      EXHF   =         0.00000000
  -V(xc)+E(xc)   XCENC  =       102.12864636
  PAW double counting   =      1278.28229923    -1286.56977075
  entropy T*S    EENTRO =        -0.00000000
  eigenvalues    EBANDS =      -362.57006928
  atomic energy  EATOM  =       957.86478714
  Solvation  Ediel_sol  =         0.00000000
  ---------------------------------------------------
  free energy    TOTEN  =       -76.10000513 eV

  energy without entropy =      -76.10000513  energy(sigma->0) =      -76.10000513


--------------------------------------------------------------------------------------------------------




----------------------------------------- Iteration    1(  19)  ---------------------------------------


    POTLOK:  cpu time   33.1126: real time   33.2028
    SETDIJ:  cpu time    0.1330: real time    0.1336
     EDDAV:  cpu time   38.1903: real time   38.2948
       DOS:  cpu time    0.0000: real time    0.0000
    CHARGE:  cpu time    4.9648: real time    4.9785
    MIXING:  cpu time    1.5977: real time    1.6019
    --------------------------------------------
      LOOP:  cpu time   78.0004: real time   78.2159

 eigenvalue-minimisations  :    72
 total energy-change (2. order) :-0.2330836E-03  (-0.5047454E-06)
 number of electron      30.0000000 magnetization 
 augmentation part        0.4088584 magnetization 

 Broyden mixing:
  rms(total) = 0.11459E-03    rms(broyden)= 0.11459E-03
  rms(prec ) = 0.13512E-03
  weight for this iteration     100.00

 eigenvalues of (default mixing * dielectric matrix)
  average eigenvalue GAMMA=   2.5182
  8.7975  5.9749  3.9958  2.8385  2.3466  1.8494  1.8494  1.5280  1.1330  1.1330
  0.9676  0.9676  0.9884  0.8855

 Free energy of the ion-electron system (eV)
  ---------------------------------------------------
  alpha Z        PSCENC =         0.09576100
  Ewald energy   TEWEN  =      2286.53307223
  -Hartree energ DENC   =     -3051.88415913
  -exchange      EXHF   =         0.00000000
  -V(xc)+E(xc)   XCENC  =       102.12850063
  PAW double counting   =      1278.24529934    -1286.53271247
  entropy T*S    EENTRO =        -0.00000000
  eigenvalues    EBANDS =      -362.55078695
  atomic energy  EATOM  =       957.86478714
  Solvation  Ediel_sol  =         0.00000000
  ---------------------------------------------------
  free energy    TOTEN  =       -76.10023821 eV

  energy without entropy =      -76.10023821  energy(sigma->0) =      -76.10023821


--------------------------------------------------------------------------------------------------------




----------------------------------------- Iteration    1(  20)  ---------------------------------------


    POTLOK:  cpu time   33.0648: real time   33.1553
    SETDIJ:  cpu time    0.1330: real time    0.1333
     EDDAV:  cpu time   34.8773: real time   34.9727
       DOS:  cpu time    0.0000: real time    0.0000
    CHARGE:  cpu time    4.9552: real time    4.9688
    MIXING:  cpu time    1.6807: real time    1.6851
    --------------------------------------------
      LOOP:  cpu time   74.7129: real time   74.9203

 eigenvalue-minimisations  :    64
 total energy-change (2. order) :-0.9572396E-04  (-0.2696505E-07)
 number of electron      30.0000000 magnetization 
 augmentation part        0.4088598 magnetization 

 Broyden mixing:
  rms(total) = 0.81210E-04    rms(broyden)= 0.81210E-04
  rms(prec ) = 0.92378E-04
  weight for this iteration     100.00

 eigenvalues of (default mixing * dielectric matrix)
  average eigenvalue GAMMA=   2.5552
  9.0156  6.3197  4.5224  3.0167  2.6090  2.2208  1.9052  1.3601  1.3088  1.0985
  1.0985  0.9679  0.9679  1.0301  0.8859

 Free energy of the ion-electron system (eV)
  ---------------------------------------------------
  alpha Z        PSCENC =         0.09576100
  Ewald energy   TEWEN  =      2286.53307223
  -Hartree energ DENC   =     -3051.88828036
  -exchange      EXHF   =         0.00000000
  -V(xc)+E(xc)   XCENC  =       102.12832704
  PAW double counting   =      1278.26493573    -1286.55235364
  entropy T*S    EENTRO =        -0.00000000
  eigenvalues    EBANDS =      -362.54658307
  atomic energy  EATOM  =       957.86478714
  Solvation  Ediel_sol  =         0.00000000
  ---------------------------------------------------
  free energy    TOTEN  =       -76.10033394 eV

  energy without entropy =      -76.10033394  energy(sigma->0) =      -76.10033394


--------------------------------------------------------------------------------------------------------




----------------------------------------- Iteration    1(  21)  ---------------------------------------


    POTLOK:  cpu time   33.0063: real time   33.0965
    SETDIJ:  cpu time    0.1343: real time    0.1346
     EDDAV:  cpu time   26.4820: real time   26.5543
       DOS:  cpu time    0.0000: real time    0.0000
    CHARGE:  cpu time    4.9523: real time    4.9659
    MIXING:  cpu time    1.7423: real time    1.7471
    --------------------------------------------
      LOOP:  cpu time   66.3190: real time   66.5022

 eigenvalue-minimisations  :    44
 total energy-change (2. order) :-0.4848393E-04  (-0.3727487E-07)
 number of electron      30.0000000 magnetization 
 augmentation part        0.4088469 magnetization 

 Broyden mixing:
  rms(total) = 0.25648E-04    rms(broyden)= 0.25648E-04
  rms(prec ) = 0.32654E-04
  weight for this iteration     100.00

 eigenvalues of (default mixing * dielectric matrix)
  average eigenvalue GAMMA=   2.5749
  9.1542  6.5525  4.7184  3.4760  2.5727  2.1125  2.1125  1.8649  1.3903  1.1307
  1.1307  1.1590  0.9697  0.9697  0.9996  0.8845

 Free energy of the ion-electron system (eV)
  ---------------------------------------------------
  alpha Z        PSCENC =         0.09576100
  Ewald energy   TEWEN  =      2286.53307223
  -Hartree energ DENC   =     -3051.90021212
  -exchange      EXHF   =         0.00000000
  -V(xc)+E(xc)   XCENC  =       102.12847628
  PAW double counting   =      1278.28782602    -1286.57530654
  entropy T*S    EENTRO =        -0.00000000
  eigenvalues    EBANDS =      -362.53478643
  atomic energy  EATOM  =       957.86478714
  Solvation  Ediel_sol  =         0.00000000
  ---------------------------------------------------
  free energy    TOTEN  =       -76.10038242 eV

  energy without entropy =      -76.10038242  energy(sigma->0) =      -76.10038242


--------------------------------------------------------------------------------------------------------




----------------------------------------- Iteration    1(  22)  ---------------------------------------


    POTLOK:  cpu time   32.9764: real time   33.0664
    SETDIJ:  cpu time    0.1254: real time    0.1257
     EDDAV:  cpu time   31.5948: real time   31.6815
       DOS:  cpu time    0.0000: real time    0.0000
    CHARGE:  cpu time    4.9565: real time    4.9701
    MIXING:  cpu time    1.8196: real time    1.8247
    --------------------------------------------
      LOOP:  cpu time   71.4746: real time   71.6729

 eigenvalue-minimisations  :    56
 total energy-change (2. order) :-0.2121625E-04  (-0.7255476E-08)
 number of electron      30.0000000 magnetization 
 augmentation part        0.4088505 magnetization 

 Broyden mixing:
  rms(total) = 0.17868E-04    rms(broyden)= 0.17868E-04
  rms(prec ) = 0.20883E-04
  weight for this iteration     100.00

 eigenvalues of (default mixing * dielectric matrix)
  average eigenvalue GAMMA=   2.5931
  9.2701  6.8574  5.2000  3.7583  2.7952  2.4526  2.1213  1.9790  1.4286  1.1901
  1.1901  1.0435  1.0435  0.9603  0.9603  0.9641  0.8691

 Free energy of the ion-electron system (eV)
  ---------------------------------------------------
  alpha Z        PSCENC =         0.09576100
  Ewald energy   TEWEN  =      2286.53307223
  -Hartree energ DENC   =     -3051.90063784
  -exchange      EXHF   =         0.00000000
  -V(xc)+E(xc)   XCENC  =       102.12843765
  PAW double counting   =      1278.28901648    -1286.57648632
  entropy T*S    EENTRO =        -0.00000000
  eigenvalues    EBANDS =      -362.53435398
  atomic energy  EATOM  =       957.86478714
  Solvation  Ediel_sol  =         0.00000000
  ---------------------------------------------------
  free energy    TOTEN  =       -76.10040364 eV

  energy without entropy =      -76.10040364  energy(sigma->0) =      -76.10040364


--------------------------------------------------------------------------------------------------------




----------------------------------------- Iteration    1(  23)  ---------------------------------------


    POTLOK:  cpu time   33.0074: real time   33.0975
    SETDIJ:  cpu time    0.1327: real time    0.1330
     EDDAV:  cpu time   26.6068: real time   26.6795
       DOS:  cpu time    0.0000: real time    0.0000
    CHARGE:  cpu time    4.9484: real time    4.9619
    MIXING:  cpu time    1.9044: real time    1.9096
    --------------------------------------------
      LOOP:  cpu time   66.6015: real time   66.7865

 eigenvalue-minimisations  :    44
 total energy-change (2. order) :-0.7703411E-05  (-0.1684901E-08)
 number of electron      30.0000000 magnetization 
 augmentation part        0.4088500 magnetization 

 Broyden mixing:
  rms(total) = 0.10348E-04    rms(broyden)= 0.10348E-04
  rms(prec ) = 0.12108E-04
  weight for this iteration     100.00

 eigenvalues of (default mixing * dielectric matrix)
  average eigenvalue GAMMA=   2.5927
  9.3234  7.0758  5.3371  4.0141  2.8208  2.5493  2.0396  2.0396  1.8486  1.3079
  1.2909  1.1230  1.1230  0.9639  0.9639  0.9975  0.9774  0.8731

 Free energy of the ion-electron system (eV)
  ---------------------------------------------------
  alpha Z        PSCENC =         0.09576100
  Ewald energy   TEWEN  =      2286.53307223
  -Hartree energ DENC   =     -3051.90166191
  -exchange      EXHF   =         0.00000000
  -V(xc)+E(xc)   XCENC  =       102.12844007
  PAW double counting   =      1278.28353408    -1286.57099496
  entropy T*S    EENTRO =        -0.00000000
  eigenvalues    EBANDS =      -362.53334899
  atomic energy  EATOM  =       957.86478714
  Solvation  Ediel_sol  =         0.00000000
  ---------------------------------------------------
  free energy    TOTEN  =       -76.10041134 eV

  energy without entropy =      -76.10041134  energy(sigma->0) =      -76.10041134


--------------------------------------------------------------------------------------------------------




----------------------------------------- Iteration    1(  24)  ---------------------------------------


    POTLOK:  cpu time   33.0485: real time   33.1389
    SETDIJ:  cpu time    0.1290: real time    0.1294
     EDDAV:  cpu time   31.5956: real time   31.6818
       DOS:  cpu time    0.0000: real time    0.0000
    CHARGE:  cpu time    4.9518: real time    4.9651
    MIXING:  cpu time    1.9827: real time    1.9882
    --------------------------------------------
      LOOP:  cpu time   71.7094: real time   71.9079

 eigenvalue-minimisations  :    56
 total energy-change (2. order) :-0.4160539E-05  (-0.1272085E-08)
 number of electron      30.0000000 magnetization 
 augmentation part        0.4088516 magnetization 

 Broyden mixing:
  rms(total) = 0.38819E-05    rms(broyden)= 0.38819E-05
  rms(prec ) = 0.50906E-05
  weight for this iteration     100.00

 eigenvalues of (default mixing * dielectric matrix)
  average eigenvalue GAMMA=   2.6413
  9.4163  7.3985  5.6413  4.4970  3.2871  2.7017  2.4969  2.1162  1.9928  1.3992
  1.1623  1.1623  1.0962  1.0962  0.9652  0.9652  1.0134  0.9064  0.8703

 Free energy of the ion-electron system (eV)
  ---------------------------------------------------
  alpha Z        PSCENC =         0.09576100
  Ewald energy   TEWEN  =      2286.53307223
  -Hartree energ DENC   =     -3051.90100032
  -exchange      EXHF   =         0.00000000
  -V(xc)+E(xc)   XCENC  =       102.12840515
  PAW double counting   =      1278.28096422    -1286.56842597
  entropy T*S    EENTRO =        -0.00000000
  eigenvalues    EBANDS =      -362.53397896
  atomic energy  EATOM  =       957.86478714
  Solvation  Ediel_sol  =         0.00000000
  ---------------------------------------------------
  free energy    TOTEN  =       -76.10041550 eV

  energy without entropy =      -76.10041550  energy(sigma->0) =      -76.10041550


--------------------------------------------------------------------------------------------------------




----------------------------------------- Iteration    1(  25)  ---------------------------------------


    POTLOK:  cpu time   33.0673: real time   33.1574
    SETDIJ:  cpu time    0.1240: real time    0.1246
     EDDAV:  cpu time   29.9371: real time   30.0190
       DOS:  cpu time    0.0000: real time    0.0000
    CHARGE:  cpu time    4.9511: real time    4.9646
    MIXING:  cpu time    2.0668: real time    2.0724
    --------------------------------------------
      LOOP:  cpu time   70.1481: real time   70.3430

 eigenvalue-minimisations  :    52
 total energy-change (2. order) :-0.2073337E-05  (-0.1214289E-08)
 number of electron      30.0000000 magnetization 
 augmentation part        0.4088513 magnetization 

 Broyden mixing:
  rms(total) = 0.33464E-05    rms(broyden)= 0.33464E-05
  rms(prec ) = 0.37340E-05
  weight for this iteration     100.00

 eigenvalues of (default mixing * dielectric matrix)
  average eigenvalue GAMMA=   2.6048
  9.4527  7.5474  5.7581  4.6233  3.4049  2.7087  2.3924  1.9961  1.9961  1.6006
  1.3368  1.3368  1.1235  1.1235  0.9675  0.9675  0.9969  0.9969  0.9080  0.8574

 Free energy of the ion-electron system (eV)
  ---------------------------------------------------
  alpha Z        PSCENC =         0.09576100
  Ewald energy   TEWEN  =      2286.53307223
  -Hartree energ DENC   =     -3051.90110559
  -exchange      EXHF   =         0.00000000
  -V(xc)+E(xc)   XCENC  =       102.12840795
  PAW double counting   =      1278.28105698    -1286.56852378
  entropy T*S    EENTRO =        -0.00000000
  eigenvalues    EBANDS =      -362.53387350
  atomic energy  EATOM  =       957.86478714
  Solvation  Ediel_sol  =         0.00000000
  ---------------------------------------------------
  free energy    TOTEN  =       -76.10041757 eV

  energy without entropy =      -76.10041757  energy(sigma->0) =      -76.10041757


--------------------------------------------------------------------------------------------------------




----------------------------------------- Iteration    1(  26)  ---------------------------------------


    POTLOK:  cpu time   33.0383: real time   33.1284
    SETDIJ:  cpu time    0.1288: real time    0.1291
     EDDAV:  cpu time   31.6214: real time   31.7081
       DOS:  cpu time    0.0000: real time    0.0000
    CHARGE:  cpu time    4.9597: real time    4.9733
    MIXING:  cpu time    2.1521: real time    2.1579
    --------------------------------------------
      LOOP:  cpu time   71.9021: real time   72.1015

 eigenvalue-minimisations  :    56
 total energy-change (2. order) :-0.4893402E-06  (-0.4809557E-09)
 number of electron      30.0000000 magnetization 
 augmentation part        0.4088515 magnetization 

 Broyden mixing:
  rms(total) = 0.27895E-05    rms(broyden)= 0.27895E-05
  rms(prec ) = 0.30418E-05
  weight for this iteration     100.00

 eigenvalues of (default mixing * dielectric matrix)
  average eigenvalue GAMMA=   2.6390
  9.4943  7.7846  6.0374  4.8643  3.7324  2.8353  2.5501  2.1726  2.1726  1.9908
  1.3938  1.1901  1.1901  1.1116  1.1116  0.9668  0.9668  1.0363  1.0363  0.9159
  0.8649

 Free energy of the ion-electron system (eV)
  ---------------------------------------------------
  alpha Z        PSCENC =         0.09576100
  Ewald energy   TEWEN  =      2286.53307223
  -Hartree energ DENC   =     -3051.90122390
  -exchange      EXHF   =         0.00000000
  -V(xc)+E(xc)   XCENC  =       102.12840906
  PAW double counting   =      1278.28092367    -1286.56838754
  entropy T*S    EENTRO =        -0.00000000
  eigenvalues    EBANDS =      -362.53375972
  atomic energy  EATOM  =       957.86478714
  Solvation  Ediel_sol  =         0.00000000
  ---------------------------------------------------
  free energy    TOTEN  =       -76.10041806 eV

  energy without entropy =      -76.10041806  energy(sigma->0) =      -76.10041806


--------------------------------------------------------------------------------------------------------




----------------------------------------- Iteration    1(  27)  ---------------------------------------


    POTLOK:  cpu time   32.8596: real time   32.9493
    SETDIJ:  cpu time    0.1235: real time    0.1238
     EDDAV:  cpu time   29.9162: real time   29.9983
       DOS:  cpu time    0.0000: real time    0.0000
    CHARGE:  cpu time    4.9548: real time    4.9684
    MIXING:  cpu time    2.2513: real time    2.2574
    --------------------------------------------
      LOOP:  cpu time   70.1074: real time   70.3018

 eigenvalue-minimisations  :    52
 total energy-change (2. order) :-0.4653048E-06  (-0.4179839E-09)
 number of electron      30.0000000 magnetization 
 augmentation part        0.4088511 magnetization 

 Broyden mixing:
  rms(total) = 0.63266E-06    rms(broyden)= 0.63266E-06
  rms(prec ) = 0.81645E-06
  weight for this iteration     100.00

 eigenvalues of (default mixing * dielectric matrix)
  average eigenvalue GAMMA=   2.6373
  9.5204  7.9262  6.1967  5.0225  3.9251  2.9729  2.6813  2.4177  2.1852  1.9058
  1.5617  1.3616  1.2412  1.1540  1.1540  0.9672  0.9672  1.0505  1.0505  0.9987
  0.9017  0.8586

 Free energy of the ion-electron system (eV)
  ---------------------------------------------------
  alpha Z        PSCENC =         0.09576100
  Ewald energy   TEWEN  =      2286.53307223
  -Hartree energ DENC   =     -3051.90142976
  -exchange      EXHF   =         0.00000000
  -V(xc)+E(xc)   XCENC  =       102.12841203
  PAW double counting   =      1278.28165612    -1286.56912092
  entropy T*S    EENTRO =        -0.00000000
  eigenvalues    EBANDS =      -362.53355637
  atomic energy  EATOM  =       957.86478714
  Solvation  Ediel_sol  =         0.00000000
  ---------------------------------------------------
  free energy    TOTEN  =       -76.10041853 eV

  energy without entropy =      -76.10041853  energy(sigma->0) =      -76.10041853


--------------------------------------------------------------------------------------------------------




----------------------------------------- Iteration    1(  28)  ---------------------------------------


    POTLOK:  cpu time   32.9014: real time   32.9912
    SETDIJ:  cpu time    0.1257: real time    0.1260
     EDDAV:  cpu time   24.8929: real time   24.9611
       DOS:  cpu time    0.0000: real time    0.0000
    CHARGE:  cpu time    4.9549: real time    4.9685
    MIXING:  cpu time    2.3459: real time    2.3522
    --------------------------------------------
      LOOP:  cpu time   65.2227: real time   65.4038

 eigenvalue-minimisations  :    40
 total energy-change (2. order) :-0.1747703E-06  (-0.1795382E-09)
 number of electron      30.0000000 magnetization 
 augmentation part        0.4088512 magnetization 

 Broyden mixing:
  rms(total) = 0.71760E-06    rms(broyden)= 0.71760E-06
  rms(prec ) = 0.78749E-06
  weight for this iteration     100.00

 eigenvalues of (default mixing * dielectric matrix)
  average eigenvalue GAMMA=   2.6212
  9.5367  8.0520  6.3419  5.1703  4.1228  3.2468  2.6741  2.4343  2.0306  2.0306
  1.7867  1.3444  1.2588  1.1967  1.1967  1.0801  1.0801  0.9651  0.9651  1.0372
  0.9878  0.8958  0.8537

 Free energy of the ion-electron system (eV)
  ---------------------------------------------------
  alpha Z        PSCENC =         0.09576100
  Ewald energy   TEWEN  =      2286.53307223
  -Hartree energ DENC   =     -3051.90143918
  -exchange      EXHF   =         0.00000000
  -V(xc)+E(xc)   XCENC  =       102.12841170
  PAW double counting   =      1278.28173412    -1286.56919862
  entropy T*S    EENTRO =        -0.00000000
  eigenvalues    EBANDS =      -362.53354708
  atomic energy  EATOM  =       957.86478714
  Solvation  Ediel_sol  =         0.00000000
  ---------------------------------------------------
  free energy    TOTEN  =       -76.10041870 eV

  energy without entropy =      -76.10041870  energy(sigma->0) =      -76.10041870


--------------------------------------------------------------------------------------------------------




----------------------------------------- Iteration    1(  29)  ---------------------------------------


    POTLOK:  cpu time   33.0394: real time   33.1298
    SETDIJ:  cpu time    0.1310: real time    0.1313
     EDDAV:  cpu time   19.9470: real time   20.0017
       DOS:  cpu time    0.0000: real time    0.0000
    --------------------------------------------
      LOOP:  cpu time   53.1190: real time   53.2670

 eigenvalue-minimisations  :    28
 total energy-change (2. order) :-0.6222058E-07  (-0.9219292E-10)
 number of electron      30.0000000 magnetization 
 augmentation part        0.4088512 magnetization 

 Free energy of the ion-electron system (eV)
  ---------------------------------------------------
  alpha Z        PSCENC =         0.09576100
  Ewald energy   TEWEN  =      2286.53307223
  -Hartree energ DENC   =     -3051.90143654
  -exchange      EXHF   =         0.00000000
  -V(xc)+E(xc)   XCENC  =       102.12841098
  PAW double counting   =      1278.28166729    -1286.56913155
  entropy T*S    EENTRO =        -0.00000000
  eigenvalues    EBANDS =      -362.53354932
  atomic energy  EATOM  =       957.86478714
  Solvation  Ediel_sol  =         0.00000000
  ---------------------------------------------------
  free energy    TOTEN  =       -76.10041877 eV

  energy without entropy =      -76.10041877  energy(sigma->0) =      -76.10041877


--------------------------------------------------------------------------------------------------------




 average (electrostatic) potential at core
  the test charge radii are     0.6991  0.5883
  (the norm of the test charge is              1.0000)
       1 -58.7525       2 -58.7525       3 -58.7524       4 -58.7523       5 -58.7526
       6 -58.7527       7 -39.8255       8 -39.8262       9 -39.8273      10 -39.8281
      11 -39.8285      12 -39.8268
 
 
 
 E-fermi :  -6.2323     XC(G=0):  -0.0475     alpha+bet : -0.0179


 k-point     1 :       0.0000    0.0000    0.0000
  band No.  band energies     occupation 
      1     -21.2198      2.00000
      2     -18.4334      2.00000
      3     -18.4315      2.00000
      4     -14.8226      2.00000
      5     -14.8223      2.00000
      6     -12.9049      2.00000
      7     -11.1961      2.00000
      8     -10.8763      2.00000
      9     -10.2148      2.00000
     10     -10.2122      2.00000
     11      -9.0657      2.00000
     12      -8.2088      2.00000
     13      -8.2084      2.00000
     14      -6.3258      2.00000
     15      -6.3242      2.00000
     16      -1.2020      0.00000
     17      -1.2014      0.00000
     18      -0.5004      0.00000
     19      -0.0307      0.00000
     20      -0.0306      0.00000
     21       0.0138      0.00000
     22       0.1121      0.00000


--------------------------------------------------------------------------------------------------------


 soft charge-density along one line, spin component           1
         0         1         2         3         4         5         6         7         8         9
 total charge-density along one line
 
 pseudopotential strength for first ion, spin component:           1
 10.272 -16.004   0.000   0.000   0.000  -0.007  -0.002  -0.006
-16.004  27.942  -0.000  -0.000  -0.000   0.008   0.003   0.007
  0.000  -0.000  -4.365  -0.002   0.002   2.891   0.007  -0.006
  0.000  -0.000  -0.002  -4.347  -0.004   0.007   2.819   0.017
  0.000  -0.000   0.002  -0.004  -4.365  -0.006   0.017   2.889
 -0.007   0.008   2.891   0.007  -0.006  43.782  -0.007   0.006
 -0.002   0.003   0.007   2.819   0.017  -0.007  43.852  -0.017
 -0.006   0.007  -0.006   0.017   2.889   0.006  -0.017  43.784
 total augmentation occupancy for first ion, spin component:           1
  1.618   0.045  -0.022  -0.007  -0.018  -0.004  -0.001  -0.003
  0.045   0.001  -0.003  -0.001  -0.002  -0.000  -0.000  -0.000
 -0.022  -0.003   1.400   0.036  -0.038   0.061   0.003  -0.004
 -0.007  -0.001   0.036   1.004   0.094   0.003   0.029   0.008
 -0.018  -0.002  -0.038   0.094   1.390  -0.004   0.008   0.061
 -0.004  -0.000   0.061   0.003  -0.004   0.003   0.000  -0.000
 -0.001  -0.000   0.003   0.029   0.008   0.000   0.001   0.000
 -0.003  -0.000  -0.004   0.008   0.061  -0.000   0.000   0.003


------------------------ aborting loop because EDIFF is reached ----------------------------------------


    CHARGE:  cpu time    4.9568: real time    4.9704
    FORLOC:  cpu time    4.3372: real time    4.3489
    FORNL :  cpu time    4.6385: real time    4.6513
    STRESS:  cpu time   15.2434: real time   15.2850
    FORHAR:  cpu time   11.5848: real time   11.6166
    MIXING:  cpu time    2.4334: real time    2.4399
    OFIELD:  cpu time    0.0000: real time    0.0000

  FORCE on cell =-STRESS in cart. coord.  units (eV):
  Direction    XX          YY          ZZ          XY          YZ          ZX
  --------------------------------------------------------------------------------------
  Alpha Z     0.09576     0.09576     0.09576
  Ewald    1156.69254  1216.44897   -86.60926   -33.14290   139.10676   312.44605
  Hartree  1244.87416  1279.31831   527.70893   -19.10687    80.08282   179.85206
  E(xc)    -105.64020  -105.49438  -108.67477    -0.08095     0.34027     0.76471
  Local   -2673.59961 -2765.28642  -765.24066    50.86882  -213.34947  -479.17306
  n-local   -52.07749   -52.30144   -47.45963     0.12107    -0.51761    -1.16284
  augment    -0.90767    -0.91804    -0.69269     0.00570    -0.02407    -0.05413
  Kinetic   432.04825   429.71097   480.97042     1.31275    -5.47780   -12.32194
  Fock        0.00000     0.00000     0.00000     0.00000     0.00000     0.00000
  -------------------------------------------------------------------------------------
  Total       1.48574     1.57373     0.09810    -0.02238     0.16090     0.35084
  in kB       0.05552     0.05881     0.00367    -0.00084     0.00601     0.01311
  external pressure =        0.04 kB  Pullay stress =        0.00 kB


 VOLUME and BASIS-vectors are now :
 -----------------------------------------------------------------------------
  energy-cutoff  :     1600.00
  volume of cell :    42875.00
      direct lattice vectors                 reciprocal lattice vectors
    35.000000000  0.000000000  0.000000000     0.028571429  0.000000000  0.000000000
     0.000000000 35.000000000  0.000000000     0.000000000  0.028571429  0.000000000
     0.000000000  0.000000000 35.000000000     0.000000000  0.000000000  0.028571429

  length of vectors
    35.000000000 35.000000000 35.000000000     0.028571429  0.028571429  0.028571429


 FORCES acting on ions
    electron-ion (+dipol)            ewald-force                    non-local-force                 convergence-correction
 -----------------------------------------------------------------------------------------------
   -.112E+03 -.135E+03 -.410E+02   0.112E+03 0.136E+03 0.412E+02   -.548E+00 -.657E+00 -.208E+00   -.437E-05 -.476E-05 -.153E-05
   -.173E+03 0.343E+02 -.375E+02   0.173E+03 -.344E+02 0.376E+02   -.847E+00 0.170E+00 -.183E+00   -.626E-05 0.282E-05 -.114E-05
   -.609E+02 0.169E+03 0.342E+01   0.611E+02 -.170E+03 -.344E+01   -.300E+00 0.831E+00 0.168E-01   -.302E-05 0.664E-05 0.544E-07
   0.112E+03 0.135E+03 0.410E+02   -.112E+03 -.135E+03 -.411E+02   0.547E+00 0.664E+00 0.205E+00   0.243E-05 0.622E-05 0.126E-05
   0.173E+03 -.342E+02 0.376E+02   -.173E+03 0.344E+02 -.377E+02   0.850E+00 -.171E+00 0.191E+00   0.631E-05 -.149E-05 0.137E-05
   0.609E+02 -.169E+03 -.357E+01   -.611E+02 0.170E+03 0.359E+01   0.305E+00 -.831E+00 -.198E-01   0.185E-05 -.680E-05 -.264E-06
   -.503E+02 -.608E+02 -.183E+02   0.542E+02 0.655E+02 0.197E+02   -.366E+01 -.442E+01 -.133E+01   -.814E-06 -.875E-06 -.282E-06
   -.778E+02 0.154E+02 -.168E+02   0.837E+02 -.166E+02 0.181E+02   -.565E+01 0.112E+01 -.122E+01   -.114E-05 0.348E-06 -.226E-06
   -.274E+02 0.763E+02 0.152E+01   0.295E+02 -.821E+02 -.164E+01   -.199E+01 0.554E+01 0.110E+00   -.332E-06 0.652E-06 -.783E-08
   0.503E+02 0.608E+02 0.184E+02   -.542E+02 -.655E+02 -.198E+02   0.366E+01 0.442E+01 0.133E+01   0.706E-06 0.105E-05 0.276E-06
   0.778E+02 -.154E+02 0.169E+02   -.837E+02 0.166E+02 -.182E+02   0.565E+01 -.112E+01 0.122E+01   0.144E-05 -.312E-06 0.308E-06
   0.274E+02 -.763E+02 -.153E+01   -.295E+02 0.821E+02 0.165E+01   0.199E+01 -.554E+01 -.110E+00   0.417E-06 -.119E-05 -.207E-07
 -----------------------------------------------------------------------------------------------
   -.936E-02 -.748E-02 -.126E-01   0.213E-13 -.284E-13 0.249E-13   0.934E-02 0.746E-02 0.126E-01   -.280E-05 0.232E-05 -.208E-06
 
 
 POSITION                                       TOTAL-FORCE (eV/Angst)
 -----------------------------------------------------------------------------------
      0.76555      0.86824      0.82099        -0.106775     -0.112624     -0.044891
      1.23765     34.55716      0.79389        -0.153465      0.032154     -0.034667
      0.37224     33.51146      0.47727        -0.059278      0.153716      0.002807
     34.03507     33.77703      0.18688         0.102219      0.129904      0.042604
     33.56293      0.08841      0.21328         0.163923     -0.038527      0.040729
     34.42809      1.13402      0.53081         0.067373     -0.155329     -0.004431
      1.43748      1.68001      1.06510         0.187066      0.227230      0.072502
      2.27576     34.35146      1.01771         0.289342     -0.058459      0.064955
      0.73819     32.49392      0.45706         0.104225     -0.289793     -0.007002
     33.36354     32.96544     34.94223        -0.193379     -0.233584     -0.073453
     32.52532      0.29430     34.98853        -0.297598      0.058650     -0.066140
     34.06230      2.15171      0.55108        -0.103652      0.286662      0.006987
 -----------------------------------------------------------------------------------
    total drift:                               -0.000017     -0.000016      0.000006


--------------------------------------------------------------------------------------------------------



  FREE ENERGIE OF THE ION-ELECTRON SYSTEM (eV)
  ---------------------------------------------------
  free  energy   TOTEN  =       -76.10041877 eV

  energy  without entropy=      -76.10041877  energy(sigma->0) =      -76.10041877
 


--------------------------------------------------------------------------------------------------------


    POTLOK:  cpu time   33.2663: real time   33.3570


--------------------------------------------------------------------------------------------------------


 writing wavefunctions
     LOOP+:  cpu time 2583.1366: real time 2590.5147
    4ORBIT:  cpu time    0.0000: real time    0.0000

 total amount of memory used by VASP on root node  7395707. kBytes
========================================================================

   base      :      30000. kBytes
   nonl-proj :     103856. kBytes
   fftplans  :    2666593. kBytes
   grid      :    4503859. kBytes
   one-center:          4. kBytes
   wavefun   :      91395. kBytes
 
  
  
 General timing and accounting informations for this job:
 ========================================================
  
                  Total CPU time used (sec):     3405.566
                            User time (sec):     3115.563
                          System time (sec):      290.003
                         Elapsed time (sec):     3415.269
  
                   Maximum memory used (kb):    11578448.
                   Average memory used (kb):           0.
  
                          Minor page faults:       239064
                          Major page faults:            6
                 Voluntary context switches:          717
 
 PROFILE, used timers:      14
 =============================
 
 index                 routine                    time                            calls level
----------------------------------------------------------------------------------------------
    1    total_time                         3415.270635                                1   1
    2      w1_copy                               6.914650                           7036   2
    3      fftwav_mpi                          385.899408                           2735   2
    4      fftext_mpi                            2.038232                             22   2
    5      overl                                 0.001840                           4039   2
    6      orth1                                 9.299008                            974   2
    7      lincom                                0.604334                             30   2
    8      eccp                                 13.809302                            638   2
    9      hamiltmu                            461.971002                            324   2
   10        vhamil                               84.438719                         2338   3
   11        overl1                                0.001781                         2338   3
   12        kinhamil                            213.035846                         2338   3
   13          fftext_mpi                          210.804994                       2338   4
   14      pdssyex_zheevx                        0.041092                             29   2
 
 Flat profile
 ============
 
             routine name                   CPU           calls
 ---------------------------------------------------------------
 total_time                           2534.691767           1
 fftwav_mpi                            385.899408        2735
 fftext_mpi                            212.843227        2360
 hamiltmu                              164.494656         324
 vhamil                                 84.438719        2338
 eccp                                   13.809302         638
 orth1                                   9.299008         974
 w1_copy                                 6.914650        7036
 kinhamil                                2.230851        2338
 lincom                                  0.604334          30
 pdssyex_zheevx                          0.041092          29
 overl                                   0.001840        4039
 overl1                                  0.001781        2338
 ---------------------------------------------------------------
  summed up times    3415.27063488960     
 
Profiling took   0.012993  0.007427  0.003334  0.003329 seconds
Profiling took   0.011556 seconds
