 vasp.5.4.1 24Jun15 (build Jan 02 2020 16:21:29) gamma-only                     
  
 executed on           IFC15_impi date 2020.05.11  12:34:33
 running on   32 total cores
 distrk:  each k-point on   32 cores,    1 groups
 distr:  one band on NCORES_PER_BAND=   8 cores,    4 groups


--------------------------------------------------------------------------------------------------------


 INCAR:
 POTCAR:    PAW_PBE C_GW 28Sep2005                
 POTCAR:    PAW_PBE H_GW 21Apr2008                
 POTCAR:    PAW_PBE C_GW 28Sep2005                
   VRHFIN =C: s2p2                                                              
   LEXCH  = PE                                                                  
   EATOM  =   147.1560 eV,   10.8157 Ry                                         
                                                                                
   TITEL  = PAW_PBE C_GW 28Sep2005                                              
   LULTRA =        F    use ultrasoft PP ?                                      
   IUNSCR =        0    unscreen: 0-lin 1-nonlin 2-no                           
   RPACOR =    0.000    partial core radius                                     
   POMASS =   12.011; ZVAL   =    4.000    mass and valenz                      
   RCORE  =    1.500    outmost cutoff radius                                   
   RWIGS  =    1.630; RWIGS  =    0.863    wigner-seitz radius (au A)           
   ENMAX  =  413.992; ENMIN  =  310.494 eV                                      
   ICORE  =        2    local potential                                         
   LCOR   =        T    correct aug charges                                     
   LPAW   =        T    paw PP                                                  
   EAUG   =  644.873                                                            
   DEXC   =    0.000                                                            
   RMAX   =    1.529    core radius for proj-oper                               
   RAUG   =    1.300    factor for augmentation sphere                          
   RDEP   =    1.501    radius for radial grids                                 
   RDEPT  =    1.300    core radius for aug-charge                              
                                                                                
   Atomic configuration                                                         
    4 entries                                                                   
     n  l   j            E        occ.                                          
     1  0  0.50      -273.3789   2.0000                                         
     2  0  0.50       -13.7508   2.0000                                         
     2  1  0.50        -5.2854   2.0000                                         
     3  2  1.50        -5.4423   0.0000                                         
   Description                                                                  
     l       E           TYP  RCUT    TYP  RCUT                                 
     0    -13.7508457     23  1.200                                             
     0     95.2407820     23  1.200                                             
     1     -5.2854382     23  1.500                                             
     1    108.8466080     23  1.500                                             
     2     -5.4423304      7  1.500                                             
  local pseudopotential read in
  kinetic energy density of atom read in
  atomic valenz-charges read in
  non local Contribution for L=           0  read in
    real space projection operators read in
  non local Contribution for L=           0  read in
    real space projection operators read in
  non local Contribution for L=           1  read in
    real space projection operators read in
  non local Contribution for L=           1  read in
    real space projection operators read in
    PAW grid and wavefunctions read in
 
   number of l-projection  operators is LMAX  =           4
   number of lm-projection operators is LMMAX =           8
 
 POTCAR:    PAW_PBE H_GW 21Apr2008                
   VRHFIN =H: ultrasoft test                                                    
   LEXCH  = PE                                                                  
   EATOM  =    12.4884 eV,    0.9179 Ry                                         
                                                                                
   TITEL  = PAW_PBE H_GW 21Apr2008                                              
   LULTRA =        F    use ultrasoft PP ?                                      
   IUNSCR =        0    unscreen: 0-lin 1-nonlin 2-no                           
   RPACOR =    0.000    partial core radius                                     
   POMASS =    1.000; ZVAL   =    1.000    mass and valenz                      
   RCORE  =    1.100    outmost cutoff radius                                   
   RWIGS  =    1.100; RWIGS  =    0.582    wigner-seitz radius (au A)           
   ENMAX  =  300.000; ENMIN  =  250.000 eV                                      
   RCLOC  =    0.701    cutoff for local pot                                    
   LCOR   =        T    correct aug charges                                     
   LPAW   =        T    paw PP                                                  
   EAUG   =  500.000                                                            
   RMAX   =    1.123    core radius for proj-oper                               
   RAUG   =    1.200    factor for augmentation sphere                          
   RDEP   =    1.112    radius for radial grids                                 
   RDEPT  =    1.100    core radius for aug-charge                              
                                                                                
   Atomic configuration                                                         
    3 entries                                                                   
     n  l   j            E        occ.                                          
     1  0  0.50        -6.4927   1.0000                                         
     2  1  0.50        -3.4015   0.0000                                         
     3  2  1.50        13.6058   0.0000                                         
   Description                                                                  
     l       E           TYP  RCUT    TYP  RCUT                                 
     0     -6.4927495     23  0.950                                             
     0      6.8029130     23  0.950                                             
     1     -4.0817478     23  1.100                                             
     1    108.8466080     23  1.100                                             
     2     81.6349560     23  1.100                                             
  local pseudopotential read in
  kinetic energy density of atom read in
  atomic valenz-charges read in
  non local Contribution for L=           0  read in
    real space projection operators read in
  non local Contribution for L=           0  read in
    real space projection operators read in
  non local Contribution for L=           1  read in
    real space projection operators read in
  non local Contribution for L=           1  read in
    real space projection operators read in
  non local Contribution for L=           2  read in
    real space projection operators read in
    PAW grid and wavefunctions read in
 
   number of l-projection  operators is LMAX  =           5
   number of lm-projection operators is LMMAX =          13
 

 ----------------------------------------------------------------------------- 
|                                                                             |
|  ADVICE TO THIS USER RUNNING 'VASP/VAMP'   (HEAR YOUR MASTER'S VOICE ...):  |
|                                                                             |
|      You have a (more or less) 'large supercell' and for larger cells       |
|      it might be more efficient to use real space projection opertators     |
|      So try LREAL= Auto  in the INCAR   file.                               |
|      Mind: At the moment your POTCAR file does not contain real space       |
|       projectors, and has to be modified,  BUT if you                       |
|      want to do an extremely  accurate calculation you might also keep the  |
|      reciprocal projection scheme          (i.e. LREAL=.FALSE.)             |
|                                                                             |
 ----------------------------------------------------------------------------- 

  PAW_PBE C_GW 28Sep2005                :
 energy of atom  1       EATOM= -147.1560
 kinetic energy error for atom=    0.0002 (will be added to EATOM!!)
  PAW_PBE H_GW 21Apr2008                :
 energy of atom  2       EATOM=  -12.4884
 kinetic energy error for atom=    0.0000 (will be added to EATOM!!)
 
 
 POSCAR: C H                                     
  positions in cartesian coordinates
  No initial velocities read in
 exchange correlation table for  LEXCH =        8
   RHO(1)=    0.500       N(1)  =     2000
   RHO(2)=  100.500       N(2)  =     4000
 


--------------------------------------------------------------------------------------------------------


 ion  position               nearest neighbor table
   1  0.935  0.996  0.024-   8 1.09   7 1.09   6 1.09   2 1.52
   2  0.973  0.018  0.019-  10 1.09   9 1.09   3 1.52   1 1.52
   3  0.006  0.991  0.014-  11 1.09  12 1.09   4 1.52   2 1.52
   4  0.044  0.012  0.008-  14 1.09  13 1.09   3 1.52   5 1.52
   5  0.078  0.985  0.004-  16 1.09  15 1.09  17 1.09   4 1.52
   6  0.929  0.979  0.998-   1 1.09
   7  0.936  0.977  0.048-   1 1.09
   8  0.911  0.016  0.028-   1 1.09
   9  0.977  0.036  0.044-   2 1.09
  10  0.971  0.037  0.995-   2 1.09
  11  0.009  0.972  0.039-   3 1.09
  12  0.001  0.972  0.989-   3 1.09
  13  0.049  0.032  0.031-   4 1.09
  14  0.042  0.030  0.982-   4 1.09
  15  0.074  0.966  0.980-   5 1.09
  16  0.105  0.000  1.000-   5 1.09
  17  0.081  0.968  0.030-   5 1.09
 
  LATTYP: Found a simple cubic cell.
 ALAT       =    35.0000000000
  
  Lattice vectors:
  
 A1 = (  35.0000000000,   0.0000000000,   0.0000000000)
 A2 = (   0.0000000000,  35.0000000000,   0.0000000000)
 A3 = (   0.0000000000,   0.0000000000,  35.0000000000)


Analysis of symmetry for initial positions (statically):
=====================================================================
 Subroutine PRICEL returns:
 Original cell was already a primitive cell.
 

 Routine SETGRP: Setting up the symmetry group for a 
 simple cubic supercell.


 Subroutine GETGRP returns: Found  1 space group operations
 (whereof  1 operations were pure point group operations)
 out of a pool of 48 trial point group operations.


The static configuration has the point symmetry C_1 .


Analysis of symmetry for dynamics (positions and initial velocities):
=====================================================================
 Subroutine PRICEL returns:
 Original cell was already a primitive cell.
 

 Routine SETGRP: Setting up the symmetry group for a 
 simple cubic supercell.


 Subroutine GETGRP returns: Found  1 space group operations
 (whereof  1 operations were pure point group operations)
 out of a pool of 48 trial point group operations.


The dynamic configuration has the point symmetry C_1 .
 
 
 KPOINTS: automatic mesh                          

Automatic generation of k-mesh.
Space group operators:
 irot       det(A)        alpha          n_x          n_y          n_z        tau_x        tau_y        tau_z
    1     1.000000     0.000000     1.000000     0.000000     0.000000     0.000000     0.000000     0.000000
 
 Subroutine IBZKPT returns following result:
 ===========================================
 
 Found      1 irreducible k-points:
 
 Following reciprocal coordinates:
            Coordinates               Weight
  0.000000  0.000000  0.000000      1.000000
 
 Following cartesian coordinates:
            Coordinates               Weight
  0.000000  0.000000  0.000000      1.000000
 


--------------------------------------------------------------------------------------------------------




 Dimension of arrays:
   k-points           NKPTS =      1   k-points in BZ     NKDIM =      1   number of bands    NBANDS=     28
   number of dos      NEDOS =    301   number of ions     NIONS =     17
   non local maximal  LDIM  =      5   non local SUM 2l+1 LMDIM =     13
   total plane-waves  NPLWV = ******
   max r-space proj   IRMAX =      1   max aug-charges    IRDMAX=  30635
   dimension x,y,z NGX =   480 NGY =  480 NGZ =  480
   dimension x,y,z NGXF=   960 NGYF=  960 NGZF=  960
   support grid    NGXF=   960 NGYF=  960 NGZF=  960
   ions per type =               5  12
 NGX,Y,Z   is equivalent  to a cutoff of  22.80, 22.80, 22.80 a.u.
 NGXF,Y,Z  is equivalent  to a cutoff of  45.60, 45.60, 45.60 a.u.


 I would recommend the setting:
   dimension x,y,z NGX =   457 NGY =  457 NGZ =  457
 SYSTEM =  C                                       
 POSCAR =  C H                                     

 Startparameter for this run:
   NWRITE =      2    write-flag & timer
   PREC   = acc       normal or accurate (medium, high low for compatibility)
   ISTART =      0    job   : 0-new  1-cont  2-samecut
   ICHARG =      2    charge: 1-file 2-atom 10-const
   ISPIN  =      1    spin polarized calculation?
   LNONCOLLINEAR =      F non collinear calculations
   LSORBIT =      F    spin-orbit coupling
   INIWAV =      1    electr: 0-lowe 1-rand  2-diag
   LASPH  =      T    aspherical Exc in radial PAW
   METAGGA=      F    non-selfconsistent MetaGGA calc.

 Electronic Relaxation 1
   ENCUT  = 1600.0 eV 117.60 Ry   10.84 a.u. 114.15114.15114.15*2*pi/ulx,y,z
   ENINI  = 1600.0     initial cutoff
   ENAUG  =  644.9 eV  augmentation charge cutoff
   NELM   =     60;   NELMIN=  2; NELMDL= -5     # of ELM steps 
   EDIFF  = 0.1E-06   stopping-criterion for ELM
   LREAL  =      F    real-space projection
   NLSPLINE    = F    spline interpolate recip. space projectors
   LCOMPAT=      F    compatible to vasp.4.4
   GGA_COMPAT  = T    GGA compatible to vasp.4.4-vasp.4.6
   LMAXPAW     = -100 max onsite density
   LMAXMIX     =    2 max onsite mixed and CHGCAR
   VOSKOWN=      0    Vosko Wilk Nusair interpolation
   ROPT   =    0.00000   0.00000
 Ionic relaxation
   EDIFFG = 0.1E-05   stopping-criterion for IOM
   NSW    =      0    number of steps for IOM
   NBLOCK =      1;   KBLOCK =      1    inner block; outer block 
   IBRION =     -1    ionic relax: 0-MD 1-quasi-New 2-CG
   NFREE  =      0    steps in history (QN), initial steepest desc. (CG)
   ISIF   =      2    stress and relaxation
   IWAVPR =     10    prediction:  0-non 1-charg 2-wave 3-comb
   ISYM   =      2    0-nonsym 1-usesym 2-fastsym
   LCORR  =      T    Harris-Foulkes like correction to forces

   POTIM  = 0.5000    time-step for ionic-motion
   TEIN   =    0.0    initial temperature
   TEBEG  =    0.0;   TEEND  =   0.0 temperature during run
   SMASS  =  -3.00    Nose mass-parameter (am)
   estimated Nose-frequenzy (Omega)   =  0.10E-29 period in steps =****** mass=  -0.280E-25a.u.
   SCALEE = 1.0000    scale energy and forces
   NPACO  =    256;   APACO  = 16.0  distance and # of slots for P.C.
   PSTRESS=    0.0 pullay stress

  Mass of Ions in am
   POMASS =  12.01  1.00
  Ionic Valenz
   ZVAL   =   4.00  1.00
  Atomic Wigner-Seitz radii
   RWIGS  =  -1.00 -1.00
  virtual crystal weights 
   VCA    =   1.00  1.00
   NELECT =      32.0000    total number of electrons
   NUPDOWN=      -1.0000    fix difference up-down

 DOS related values:
   EMIN   =  10.00;   EMAX   =-10.00  energy-range for DOS
   EFERMI =   0.00
   ISMEAR =     0;   SIGMA  =   0.01  broadening in eV -4-tet -1-fermi 0-gaus

 Electronic relaxation 2 (details)
   IALGO  =     38    algorithm
   LDIAG  =      T    sub-space diagonalisation (order eigenvalues)
   LSUBROT=      F    optimize rotation matrix (better conditioning)
   TURBO    =      0    0=normal 1=particle mesh
   IRESTART =      0    0=no restart 2=restart with 2 vectors
   NREBOOT  =      0    no. of reboots
   NMIN     =      0    reboot dimension
   EREF     =   0.00    reference energy to select bands
   IMIX   =      4    mixing-type and parameters
     AMIX     =   0.40;   BMIX     =  1.00
     AMIX_MAG =   1.60;   BMIX_MAG =  1.00
     AMIN     =   0.10
     WC   =   100.;   INIMIX=   1;  MIXPRE=   1;  MAXMIX= -45

 Intra band minimization:
   WEIMIN = 0.0000     energy-eigenvalue tresh-hold
   EBREAK =  0.89E-09  absolut break condition
   DEPER  =   0.30     relativ break condition  

   TIME   =   0.40     timestep for ELM

  volume/ion in A,a.u.               =    2522.06     17019.69
  Fermi-wavevector in a.u.,A,eV,Ry     =   0.148499  0.280622  0.300035  0.022052
  Thomas-Fermi vector in A             =   0.821704
 
 Write flags
   LWAVE  =      T    write WAVECAR
   LCHARG =      T    write CHGCAR
   LVTOT  =      F    write LOCPOT, total local potential
   LVHAR  =      F    write LOCPOT, Hartree potential only
   LELF   =      F    write electronic localiz. function (ELF)
   LORBIT =      0    0 simple, 1 ext, 2 COOP (PROOUT)


 Dipole corrections
   LMONO  =      F    monopole corrections only (constant potential shift)
   LDIPOL =      F    correct potential (dipole corrections)
   IDIPOL =      0    1-x, 2-y, 3-z, 4-all directions 
   EPSILON=  1.0000000 bulk dielectric constant

 Exchange correlation treatment:
   GGA     =    --    GGA type
   LEXCH   =     8    internal setting for exchange type
   VOSKOWN=      0    Vosko Wilk Nusair interpolation
   LHFCALC =     F    Hartree Fock is set to
   LHFONE  =     F    Hartree Fock one center treatment
   AEXX    =    0.0000 exact exchange contribution

 Linear response parameters
   LEPSILON=     F    determine dielectric tensor
   LRPA    =     F    only Hartree local field effects (RPA)
   LNABLA  =     F    use nabla operator in PAW spheres
   LVEL    =     F    velocity operator in full k-point grid
   LINTERFAST=   F  fast interpolation
   KINTER  =     0    interpolate to denser k-point grid
   CSHIFT  =0.1000    complex shift for real part using Kramers Kronig
   OMEGAMAX=  -1.0    maximum frequency
   DEG_THRESHOLD= 0.2000000E-02 threshold for treating states as degnerate
   RTIME   =    0.100 relaxation time in fs

 Orbital magnetization related:
   ORBITALMAG=     F  switch on orbital magnetization
   LCHIMAG   =     F  perturbation theory with respect to B field
   DQ        =  0.001000  dq finite difference perturbation B field



--------------------------------------------------------------------------------------------------------


 Static calculation
 charge density and potential will be updated during run
 non-spin polarized calculation
 Variant of blocked Davidson
 Davidson routine will perform the subspace rotation
 perform sub-space diagonalisation
    after iterative eigenvector-optimisation
 modified Broyden-mixing scheme, WC =      100.0
 initial mixing is a Kerker type mixing with AMIX =  0.4000 and BMIX =      1.0000
 Hartree-type preconditioning will be used
 using additional bands           12
 reciprocal scheme for non local part
 calculate Harris-corrections to forces 
   (improved forces if not selfconsistent)
 use gradient corrections 
 use of overlap-Matrix (Vanderbilt PP)
 Gauss-broadening in eV      SIGMA  =   0.01


--------------------------------------------------------------------------------------------------------


  energy-cutoff  :     1600.00
  volume of cell :    42875.00
      direct lattice vectors                 reciprocal lattice vectors
    35.000000000  0.000000000  0.000000000     0.028571429  0.000000000  0.000000000
     0.000000000 35.000000000  0.000000000     0.000000000  0.028571429  0.000000000
     0.000000000  0.000000000 35.000000000     0.000000000  0.000000000  0.028571429

  length of vectors
    35.000000000 35.000000000 35.000000000     0.028571429  0.028571429  0.028571429


 
 k-points in units of 2pi/SCALE and weight: automatic mesh                          
   0.00000000  0.00000000  0.00000000       1.000
 
 k-points in reciprocal lattice and weights: automatic mesh                          
   0.00000000  0.00000000  0.00000000       1.000
 
 position of ions in fractional coordinates (direct lattice) 
   0.93499014  0.99614072  0.02375240
   0.97252291  0.01769365  0.01912569
   0.00647149  0.99100828  0.01371388
   0.04408576  0.01203356  0.00768570
   0.07793075  0.98494683  0.00392741
   0.92883664  0.97920209  0.99835525
   0.93639075  0.97661582  0.04796638
   0.91108498  0.01556981  0.02821143
   0.97746574  0.03572662  0.04413436
   0.97068066  0.03701272  0.99467262
   0.00884127  0.97213888  0.03851537
   0.00111859  0.97240004  0.98917743
   0.04890396  0.03165062  0.03149847
   0.04188842  0.02982124  0.98213447
   0.07396404  0.96562246  0.97983550
   0.10461431  0.00033409  0.99954375
   0.08100554  0.96750257  0.02954500
 
 position of ions in cartesian coordinates  (Angst):
  32.72465502 34.86492506  0.83133387
  34.03830188  0.61927789  0.66939920
   0.22650217 34.68528969  0.47998579
   1.54300168  0.42117452  0.26899951
   2.72757632 34.47313909  0.13745931
  32.50928224 34.27207331 34.94243365
  32.77367618 34.18155359  1.67882341
  31.88797434  0.54494342  0.98740008
  34.21130080  1.25043181  1.54470266
  33.97382313  1.29544524 34.81354162
   0.30944439 34.02486089  1.34803793
   0.03915056 34.03400125 34.62121017
   1.71163863  1.10777177  1.10244654
   1.46609466  1.04374331 34.37470642
   2.58874155 33.79678609 34.29424266
   3.66150100  0.01169308 34.98403137
   2.83519407 33.86259006  1.03407512
 


--------------------------------------------------------------------------------------------------------


 use parallel FFT for wavefunctions z direction half grid
 k-point  1 :   0.0000 0.0000 0.0000  plane waves: 3115599

 maximum and minimum number of plane-waves per node :    389462   389421

 maximum number of plane-waves:   3115599
 maximum index in each direction: 
   IXMAX=  114   IYMAX=  114   IZMAX=  114
   IXMIN= -114   IYMIN= -114   IZMIN=    0

 NGX is ok and might be reduce to 458
 NGY is ok and might be reduce to 458
 NGZ is ok and might be reduce to 458

 parallel 3D FFT for wavefunctions:
    minimum data exchange during FFTs selected (reduces bandwidth)
 parallel 3D FFT for charge:
    minimum data exchange during FFTs selected (reduces bandwidth)


 total amount of memory used by VASP on root node  3579791. kBytes
========================================================================

   base      :      30000. kBytes
   nonl-proj :     186923. kBytes
   fftplans  :    1215227. kBytes
   grid      :    2104012. kBytes
   one-center:         12. kBytes
   wavefun   :      43617. kBytes
 
     INWAV:  cpu time    0.0001: real time    0.0002
 Broyden mixing: mesh for mixing (old mesh)
   NGX =229   NGY =229   NGZ =229
  (NGX  =960   NGY  =960   NGZ  =960)
  gives a total of ****** points

 initial charge density was supplied:
 charge density of overlapping atoms calculated
 number of electron      32.0000000 magnetization 
 keeping initial charge density in first step


--------------------------------------------------------------------------------------------------------


 Maximum index for augmentation-charges         1148 (set IRDMAX)


--------------------------------------------------------------------------------------------------------


 First call to EWALD:  gamma=   0.051
 Maximum number of real-space cells 3x 3x 3
 Maximum number of reciprocal cells 3x 3x 3

 FEWALD executed in parallel
    FEWALD:  cpu time    0.0016: real time    0.0019


----------------------------------------- Iteration    1(   1)  ---------------------------------------


    POTLOK:  cpu time   14.2685: real time   14.3134
    SETDIJ:  cpu time    0.1309: real time    0.1312
     EDDAV:  cpu time   17.3458: real time   17.4020
       DOS:  cpu time    0.0001: real time    0.0001
    --------------------------------------------
      LOOP:  cpu time   31.7475: real time   31.8509

 eigenvalue-minimisations  :    72
 total energy-change (2. order) : 0.2844824E+03  (-0.6266688E+03)
 number of electron      32.0000000 magnetization 
 augmentation part       32.0000000 magnetization 

 Free energy of the ion-electron system (eV)
  ---------------------------------------------------
  alpha Z        PSCENC =         0.09786705
  Ewald energy   TEWEN  =      2358.08188743
  -Hartree energ DENC   =     -2887.57388716
  -exchange      EXHF   =         0.00000000
  -V(xc)+E(xc)   XCENC  =        96.87000500
  PAW double counting   =       565.29370843     -571.17211877
  entropy T*S    EENTRO =        -0.00000000
  eigenvalues    EBANDS =      -162.75424221
  atomic energy  EATOM  =       885.63923014
  Solvation  Ediel_sol  =         0.00000000
  ---------------------------------------------------
  free energy    TOTEN  =       284.48244992 eV

  energy without entropy =      284.48244992  energy(sigma->0) =      284.48244992


--------------------------------------------------------------------------------------------------------




----------------------------------------- Iteration    1(   2)  ---------------------------------------


     EDDAV:  cpu time   23.0463: real time   23.1199
       DOS:  cpu time    0.0001: real time    0.0001
    --------------------------------------------
      LOOP:  cpu time   23.0486: real time   23.1250

 eigenvalue-minimisations  :   104
 total energy-change (2. order) :-0.1998104E+03  (-0.1952430E+03)
 number of electron      32.0000000 magnetization 
 augmentation part       32.0000000 magnetization 

 Free energy of the ion-electron system (eV)
  ---------------------------------------------------
  alpha Z        PSCENC =         0.09786705
  Ewald energy   TEWEN  =      2358.08188743
  -Hartree energ DENC   =     -2887.57388716
  -exchange      EXHF   =         0.00000000
  -V(xc)+E(xc)   XCENC  =        96.87000500
  PAW double counting   =       565.29370843     -571.17211877
  entropy T*S    EENTRO =        -0.00000000
  eigenvalues    EBANDS =      -362.56460315
  atomic energy  EATOM  =       885.63923014
  Solvation  Ediel_sol  =         0.00000000
  ---------------------------------------------------
  free energy    TOTEN  =        84.67208898 eV

  energy without entropy =       84.67208898  energy(sigma->0) =       84.67208898


--------------------------------------------------------------------------------------------------------




----------------------------------------- Iteration    1(   3)  ---------------------------------------


     EDDAV:  cpu time   21.5771: real time   21.6465
       DOS:  cpu time    0.0001: real time    0.0001
    --------------------------------------------
      LOOP:  cpu time   21.5791: real time   21.6512

 eigenvalue-minimisations  :    96
 total energy-change (2. order) :-0.1536314E+03  (-0.1520734E+03)
 number of electron      32.0000000 magnetization 
 augmentation part       32.0000000 magnetization 

 Free energy of the ion-electron system (eV)
  ---------------------------------------------------
  alpha Z        PSCENC =         0.09786705
  Ewald energy   TEWEN  =      2358.08188743
  -Hartree energ DENC   =     -2887.57388716
  -exchange      EXHF   =         0.00000000
  -V(xc)+E(xc)   XCENC  =        96.87000500
  PAW double counting   =       565.29370843     -571.17211877
  entropy T*S    EENTRO =        -0.00000000
  eigenvalues    EBANDS =      -516.19604159
  atomic energy  EATOM  =       885.63923014
  Solvation  Ediel_sol  =         0.00000000
  ---------------------------------------------------
  free energy    TOTEN  =       -68.95934946 eV

  energy without entropy =      -68.95934946  energy(sigma->0) =      -68.95934946


--------------------------------------------------------------------------------------------------------




----------------------------------------- Iteration    1(   4)  ---------------------------------------


     EDDAV:  cpu time   16.5445: real time   16.5979
       DOS:  cpu time    0.0001: real time    0.0001
    --------------------------------------------
      LOOP:  cpu time   16.5466: real time   16.6028

 eigenvalue-minimisations  :    68
 total energy-change (2. order) :-0.3118023E+02  (-0.3116338E+02)
 number of electron      32.0000000 magnetization 
 augmentation part       32.0000000 magnetization 

 Free energy of the ion-electron system (eV)
  ---------------------------------------------------
  alpha Z        PSCENC =         0.09786705
  Ewald energy   TEWEN  =      2358.08188743
  -Hartree energ DENC   =     -2887.57388716
  -exchange      EXHF   =         0.00000000
  -V(xc)+E(xc)   XCENC  =        96.87000500
  PAW double counting   =       565.29370843     -571.17211877
  entropy T*S    EENTRO =        -0.00000000
  eigenvalues    EBANDS =      -547.37626847
  atomic energy  EATOM  =       885.63923014
  Solvation  Ediel_sol  =         0.00000000
  ---------------------------------------------------
  free energy    TOTEN  =      -100.13957634 eV

  energy without entropy =     -100.13957634  energy(sigma->0) =     -100.13957634


--------------------------------------------------------------------------------------------------------




----------------------------------------- Iteration    1(   5)  ---------------------------------------


     EDDAV:  cpu time   18.6906: real time   18.7500
       DOS:  cpu time    0.0001: real time    0.0001
    CHARGE:  cpu time    2.4062: real time    2.4161
    MIXING:  cpu time    0.3537: real time    0.3545
    --------------------------------------------
      LOOP:  cpu time   21.4525: real time   21.5251

 eigenvalue-minimisations  :    80
 total energy-change (2. order) :-0.1189227E+01  (-0.1187306E+01)
 number of electron      32.0000000 magnetization 
 augmentation part        0.6121181 magnetization 

 Broyden mixing:
  rms(total) = 0.15325E+01    rms(broyden)= 0.15325E+01
  rms(prec ) = 0.15949E+01
  weight for this iteration     100.00

 Free energy of the ion-electron system (eV)
  ---------------------------------------------------
  alpha Z        PSCENC =         0.09786705
  Ewald energy   TEWEN  =      2358.08188743
  -Hartree energ DENC   =     -2887.57388716
  -exchange      EXHF   =         0.00000000
  -V(xc)+E(xc)   XCENC  =        96.87000500
  PAW double counting   =       565.29370843     -571.17211877
  entropy T*S    EENTRO =        -0.00000000
  eigenvalues    EBANDS =      -548.56549547
  atomic energy  EATOM  =       885.63923014
  Solvation  Ediel_sol  =         0.00000000
  ---------------------------------------------------
  free energy    TOTEN  =      -101.32880335 eV

  energy without entropy =     -101.32880335  energy(sigma->0) =     -101.32880335


--------------------------------------------------------------------------------------------------------




----------------------------------------- Iteration    1(   6)  ---------------------------------------


    POTLOK:  cpu time   13.9199: real time   13.9580
    SETDIJ:  cpu time    0.1325: real time    0.1328
     EDDAV:  cpu time   19.4343: real time   19.4968
       DOS:  cpu time    0.0001: real time    0.0001
    CHARGE:  cpu time    2.3736: real time    2.3833
    MIXING:  cpu time    0.3707: real time    0.3719
    --------------------------------------------
      LOOP:  cpu time   36.2334: real time   36.3473

 eigenvalue-minimisations  :    84
 total energy-change (2. order) : 0.8717566E+01  (-0.1403000E+01)
 number of electron      32.0000000 magnetization 
 augmentation part        0.4924302 magnetization 

 Broyden mixing:
  rms(total) = 0.73882E+00    rms(broyden)= 0.73882E+00
  rms(prec ) = 0.76645E+00
  weight for this iteration     100.00

 eigenvalues of (default mixing * dielectric matrix)
  average eigenvalue GAMMA=   1.5541
  1.5541

 Free energy of the ion-electron system (eV)
  ---------------------------------------------------
  alpha Z        PSCENC =         0.09786705
  Ewald energy   TEWEN  =      2358.08188743
  -Hartree energ DENC   =     -2962.10955413
  -exchange      EXHF   =         0.00000000
  -V(xc)+E(xc)   XCENC  =       100.62706085
  PAW double counting   =       863.57691381     -870.32919783
  entropy T*S    EENTRO =        -0.00000000
  eigenvalues    EBANDS =      -468.19544457
  atomic energy  EATOM  =       885.63923014
  Solvation  Ediel_sol  =         0.00000000
  ---------------------------------------------------
  free energy    TOTEN  =       -92.61123724 eV

  energy without entropy =      -92.61123724  energy(sigma->0) =      -92.61123724


--------------------------------------------------------------------------------------------------------




----------------------------------------- Iteration    1(   7)  ---------------------------------------


    POTLOK:  cpu time   13.9169: real time   13.9549
    SETDIJ:  cpu time    0.1325: real time    0.1328
     EDDAV:  cpu time   16.5506: real time   16.6026
       DOS:  cpu time    0.0001: real time    0.0001
    CHARGE:  cpu time    2.3720: real time    2.3818
    MIXING:  cpu time    0.3777: real time    0.3786
    --------------------------------------------
      LOOP:  cpu time   33.3519: real time   33.4554

 eigenvalue-minimisations  :    68
 total energy-change (2. order) : 0.2044177E+01  (-0.6370439E+00)
 number of electron      32.0000000 magnetization 
 augmentation part        0.4475598 magnetization 

 Broyden mixing:
  rms(total) = 0.31835E+00    rms(broyden)= 0.31835E+00
  rms(prec ) = 0.32783E+00
  weight for this iteration     100.00

 eigenvalues of (default mixing * dielectric matrix)
  average eigenvalue GAMMA=   1.9236
  1.6841  2.1632

 Free energy of the ion-electron system (eV)
  ---------------------------------------------------
  alpha Z        PSCENC =         0.09786705
  Ewald energy   TEWEN  =      2358.08188743
  -Hartree energ DENC   =     -3020.19901671
  -exchange      EXHF   =         0.00000000
  -V(xc)+E(xc)   XCENC  =       103.94787984
  PAW double counting   =      1105.50890662    -1112.69103766
  entropy T*S    EENTRO =        -0.00000000
  eigenvalues    EBANDS =      -410.95277662
  atomic energy  EATOM  =       885.63923014
  Solvation  Ediel_sol  =         0.00000000
  ---------------------------------------------------
  free energy    TOTEN  =       -90.56705989 eV

  energy without entropy =      -90.56705989  energy(sigma->0) =      -90.56705989


--------------------------------------------------------------------------------------------------------




----------------------------------------- Iteration    1(   8)  ---------------------------------------


    POTLOK:  cpu time   13.9086: real time   13.9467
    SETDIJ:  cpu time    0.1335: real time    0.1338
     EDDAV:  cpu time   17.2691: real time   17.3240
       DOS:  cpu time    0.0001: real time    0.0001
    CHARGE:  cpu time    2.3614: real time    2.3709
    MIXING:  cpu time    0.3903: real time    0.3912
    --------------------------------------------
      LOOP:  cpu time   34.0651: real time   34.1714

 eigenvalue-minimisations  :    72
 total energy-change (2. order) : 0.4009290E+00  (-0.5891558E-01)
 number of electron      32.0000000 magnetization 
 augmentation part        0.4512439 magnetization 

 Broyden mixing:
  rms(total) = 0.50922E-01    rms(broyden)= 0.50922E-01
  rms(prec ) = 0.61325E-01
  weight for this iteration     100.00

 eigenvalues of (default mixing * dielectric matrix)
  average eigenvalue GAMMA=   1.6292
  2.3976  1.0173  1.4729

 Free energy of the ion-electron system (eV)
  ---------------------------------------------------
  alpha Z        PSCENC =         0.09786705
  Ewald energy   TEWEN  =      2358.08188743
  -Hartree energ DENC   =     -3038.60252629
  -exchange      EXHF   =         0.00000000
  -V(xc)+E(xc)   XCENC  =       105.31160623
  PAW double counting   =      1146.79808072    -1153.88278251
  entropy T*S    EENTRO =        -0.00000000
  eigenvalues    EBANDS =      -393.60949369
  atomic energy  EATOM  =       885.63923014
  Solvation  Ediel_sol  =         0.00000000
  ---------------------------------------------------
  free energy    TOTEN  =       -90.16613092 eV

  energy without entropy =      -90.16613092  energy(sigma->0) =      -90.16613092


--------------------------------------------------------------------------------------------------------




----------------------------------------- Iteration    1(   9)  ---------------------------------------


    POTLOK:  cpu time   13.9966: real time   14.0349
    SETDIJ:  cpu time    0.1327: real time    0.1330
     EDDAV:  cpu time   18.7068: real time   18.7667
       DOS:  cpu time    0.0001: real time    0.0001
    CHARGE:  cpu time    2.3786: real time    2.3882
    MIXING:  cpu time    0.4041: real time    0.4051
    --------------------------------------------
      LOOP:  cpu time   35.6210: real time   35.7325

 eigenvalue-minimisations  :    80
 total energy-change (2. order) : 0.3845596E-01  (-0.1186084E-01)
 number of electron      32.0000000 magnetization 
 augmentation part        0.4455799 magnetization 

 Broyden mixing:
  rms(total) = 0.32167E-01    rms(broyden)= 0.32167E-01
  rms(prec ) = 0.39648E-01
  weight for this iteration     100.00

 eigenvalues of (default mixing * dielectric matrix)
  average eigenvalue GAMMA=   1.5498
  2.1330  1.8872  1.0895  1.0895

 Free energy of the ion-electron system (eV)
  ---------------------------------------------------
  alpha Z        PSCENC =         0.09786705
  Ewald energy   TEWEN  =      2358.08188743
  -Hartree energ DENC   =     -3046.54826862
  -exchange      EXHF   =         0.00000000
  -V(xc)+E(xc)   XCENC  =       105.64141262
  PAW double counting   =      1163.42825162    -1170.54655930
  entropy T*S    EENTRO =        -0.00000000
  eigenvalues    EBANDS =      -385.92149591
  atomic energy  EATOM  =       885.63923014
  Solvation  Ediel_sol  =         0.00000000
  ---------------------------------------------------
  free energy    TOTEN  =       -90.12767496 eV

  energy without entropy =      -90.12767496  energy(sigma->0) =      -90.12767496


--------------------------------------------------------------------------------------------------------




----------------------------------------- Iteration    1(  10)  ---------------------------------------


    POTLOK:  cpu time   13.9854: real time   14.0236
    SETDIJ:  cpu time    0.1344: real time    0.1347
     EDDAV:  cpu time   16.5342: real time   16.5875
       DOS:  cpu time    0.0001: real time    0.0001
    CHARGE:  cpu time    2.3801: real time    2.3897
    MIXING:  cpu time    0.4143: real time    0.4156
    --------------------------------------------
      LOOP:  cpu time   33.4506: real time   33.5562

 eigenvalue-minimisations  :    68
 total energy-change (2. order) : 0.9359945E-02  (-0.1630375E-02)
 number of electron      32.0000000 magnetization 
 augmentation part        0.4447905 magnetization 

 Broyden mixing:
  rms(total) = 0.18058E-01    rms(broyden)= 0.18058E-01
  rms(prec ) = 0.23928E-01
  weight for this iteration     100.00

 eigenvalues of (default mixing * dielectric matrix)
  average eigenvalue GAMMA=   1.6274
  2.3872  2.3872  1.2088  1.2088  0.9449

 Free energy of the ion-electron system (eV)
  ---------------------------------------------------
  alpha Z        PSCENC =         0.09786705
  Ewald energy   TEWEN  =      2358.08188743
  -Hartree energ DENC   =     -3052.23295399
  -exchange      EXHF   =         0.00000000
  -V(xc)+E(xc)   XCENC  =       105.72954630
  PAW double counting   =      1156.91596164    -1164.01918115
  entropy T*S    EENTRO =        -0.00000000
  eigenvalues    EBANDS =      -380.33067246
  atomic energy  EATOM  =       885.63923014
  Solvation  Ediel_sol  =         0.00000000
  ---------------------------------------------------
  free energy    TOTEN  =       -90.11831502 eV

  energy without entropy =      -90.11831502  energy(sigma->0) =      -90.11831502


--------------------------------------------------------------------------------------------------------




----------------------------------------- Iteration    1(  11)  ---------------------------------------


    POTLOK:  cpu time   14.0175: real time   14.0558
    SETDIJ:  cpu time    0.1344: real time    0.1347
     EDDAV:  cpu time   17.2406: real time   17.2947
       DOS:  cpu time    0.0001: real time    0.0001
    CHARGE:  cpu time    2.3713: real time    2.3806
    MIXING:  cpu time    0.4249: real time    0.4263
    --------------------------------------------
      LOOP:  cpu time   34.1909: real time   34.2971

 eigenvalue-minimisations  :    72
 total energy-change (2. order) : 0.7049191E-02  (-0.3429327E-03)
 number of electron      32.0000000 magnetization 
 augmentation part        0.4447766 magnetization 

 Broyden mixing:
  rms(total) = 0.11234E-01    rms(broyden)= 0.11234E-01
  rms(prec ) = 0.15885E-01
  weight for this iteration     100.00

 eigenvalues of (default mixing * dielectric matrix)
  average eigenvalue GAMMA=   1.8675
  3.6708  2.5825  1.6096  0.9831  1.1796  1.1796

 Free energy of the ion-electron system (eV)
  ---------------------------------------------------
  alpha Z        PSCENC =         0.09786705
  Ewald energy   TEWEN  =      2358.08188743
  -Hartree energ DENC   =     -3056.36362530
  -exchange      EXHF   =         0.00000000
  -V(xc)+E(xc)   XCENC  =       105.84143728
  PAW double counting   =      1156.34710231    -1163.44281390
  entropy T*S    EENTRO =        -0.00000000
  eigenvalues    EBANDS =      -376.31235084
  atomic energy  EATOM  =       885.63923014
  Solvation  Ediel_sol  =         0.00000000
  ---------------------------------------------------
  free energy    TOTEN  =       -90.11126583 eV

  energy without entropy =      -90.11126583  energy(sigma->0) =      -90.11126583


--------------------------------------------------------------------------------------------------------




----------------------------------------- Iteration    1(  12)  ---------------------------------------


    POTLOK:  cpu time   13.9921: real time   14.0304
    SETDIJ:  cpu time    0.1359: real time    0.1362
     EDDAV:  cpu time   16.5169: real time   16.5700
       DOS:  cpu time    0.0001: real time    0.0001
    CHARGE:  cpu time    2.3805: real time    2.3896
    MIXING:  cpu time    0.4424: real time    0.4435
    --------------------------------------------
      LOOP:  cpu time   33.4701: real time   33.5747

 eigenvalue-minimisations  :    68
 total energy-change (2. order) : 0.3805777E-02  (-0.9520389E-03)
 number of electron      32.0000000 magnetization 
 augmentation part        0.4436597 magnetization 

 Broyden mixing:
  rms(total) = 0.66833E-02    rms(broyden)= 0.66833E-02
  rms(prec ) = 0.87501E-02
  weight for this iteration     100.00

 eigenvalues of (default mixing * dielectric matrix)
  average eigenvalue GAMMA=   1.8459
  4.1593  2.4401  1.6515  1.3631  1.3631  0.9722  0.9722

 Free energy of the ion-electron system (eV)
  ---------------------------------------------------
  alpha Z        PSCENC =         0.09786705
  Ewald energy   TEWEN  =      2358.08188743
  -Hartree energ DENC   =     -3062.03666840
  -exchange      EXHF   =         0.00000000
  -V(xc)+E(xc)   XCENC  =       105.94190146
  PAW double counting   =      1155.27959400    -1162.37565813
  entropy T*S    EENTRO =        -0.00000000
  eigenvalues    EBANDS =      -370.73561361
  atomic energy  EATOM  =       885.63923014
  Solvation  Ediel_sol  =         0.00000000
  ---------------------------------------------------
  free energy    TOTEN  =       -90.10746005 eV

  energy without entropy =      -90.10746005  energy(sigma->0) =      -90.10746005


--------------------------------------------------------------------------------------------------------




----------------------------------------- Iteration    1(  13)  ---------------------------------------


    POTLOK:  cpu time   14.0465: real time   14.0846
    SETDIJ:  cpu time    0.1330: real time    0.1336
     EDDAV:  cpu time   18.7136: real time   18.7723
       DOS:  cpu time    0.0001: real time    0.0001
    CHARGE:  cpu time    2.3644: real time    2.3742
    MIXING:  cpu time    0.4553: real time    0.4564
    --------------------------------------------
      LOOP:  cpu time   35.7151: real time   35.8259

 eigenvalue-minimisations  :    80
 total energy-change (2. order) :-0.8052628E-02  (-0.1415135E-03)
 number of electron      32.0000000 magnetization 
 augmentation part        0.4438934 magnetization 

 Broyden mixing:
  rms(total) = 0.40990E-02    rms(broyden)= 0.40990E-02
  rms(prec ) = 0.57901E-02
  weight for this iteration     100.00

 eigenvalues of (default mixing * dielectric matrix)
  average eigenvalue GAMMA=   1.9405
  4.6454  2.6770  1.8721  1.6069  1.6069  0.9639  1.0760  1.0760

 Free energy of the ion-electron system (eV)
  ---------------------------------------------------
  alpha Z        PSCENC =         0.09786705
  Ewald energy   TEWEN  =      2358.08188743
  -Hartree energ DENC   =     -3063.17663259
  -exchange      EXHF   =         0.00000000
  -V(xc)+E(xc)   XCENC  =       105.95485399
  PAW double counting   =      1155.40306759    -1162.49753097
  entropy T*S    EENTRO =        -0.00000000
  eigenvalues    EBANDS =      -369.61825533
  atomic energy  EATOM  =       885.63923014
  Solvation  Ediel_sol  =         0.00000000
  ---------------------------------------------------
  free energy    TOTEN  =       -90.11551268 eV

  energy without entropy =      -90.11551268  energy(sigma->0) =      -90.11551268


--------------------------------------------------------------------------------------------------------




----------------------------------------- Iteration    1(  14)  ---------------------------------------


    POTLOK:  cpu time   14.0023: real time   14.0406
    SETDIJ:  cpu time    0.1346: real time    0.1349
     EDDAV:  cpu time   17.2351: real time   17.2909
       DOS:  cpu time    0.0001: real time    0.0001
    CHARGE:  cpu time    2.3695: real time    2.3790
    MIXING:  cpu time    0.4717: real time    0.4732
    --------------------------------------------
      LOOP:  cpu time   34.2155: real time   34.3233

 eigenvalue-minimisations  :    72
 total energy-change (2. order) :-0.1048164E-01  (-0.1302737E-03)
 number of electron      32.0000000 magnetization 
 augmentation part        0.4438308 magnetization 

 Broyden mixing:
  rms(total) = 0.23396E-02    rms(broyden)= 0.23396E-02
  rms(prec ) = 0.33297E-02
  weight for this iteration     100.00

 eigenvalues of (default mixing * dielectric matrix)
  average eigenvalue GAMMA=   2.0282
  5.6759  3.0510  2.3447  1.4111  1.4111  1.4481  0.9855  0.9855  0.9413

 Free energy of the ion-electron system (eV)
  ---------------------------------------------------
  alpha Z        PSCENC =         0.09786705
  Ewald energy   TEWEN  =      2358.08188743
  -Hartree energ DENC   =     -3064.26696787
  -exchange      EXHF   =         0.00000000
  -V(xc)+E(xc)   XCENC  =       105.94746141
  PAW double counting   =      1154.76254532    -1161.85682964
  entropy T*S    EENTRO =        -0.00000000
  eigenvalues    EBANDS =      -368.53118817
  atomic energy  EATOM  =       885.63923014
  Solvation  Ediel_sol  =         0.00000000
  ---------------------------------------------------
  free energy    TOTEN  =       -90.12599432 eV

  energy without entropy =      -90.12599432  energy(sigma->0) =      -90.12599432


--------------------------------------------------------------------------------------------------------




----------------------------------------- Iteration    1(  15)  ---------------------------------------


    POTLOK:  cpu time   14.0192: real time   14.0575
    SETDIJ:  cpu time    0.1331: real time    0.1334
     EDDAV:  cpu time   20.1549: real time   20.2202
       DOS:  cpu time    0.0001: real time    0.0001
    CHARGE:  cpu time    2.3682: real time    2.3775
    MIXING:  cpu time    0.4889: real time    0.4904
    --------------------------------------------
      LOOP:  cpu time   37.1664: real time   37.2834

 eigenvalue-minimisations  :    88
 total energy-change (2. order) :-0.5296282E-02  (-0.4450659E-04)
 number of electron      32.0000000 magnetization 
 augmentation part        0.4439663 magnetization 

 Broyden mixing:
  rms(total) = 0.18982E-02    rms(broyden)= 0.18982E-02
  rms(prec ) = 0.24325E-02
  weight for this iteration     100.00

 eigenvalues of (default mixing * dielectric matrix)
  average eigenvalue GAMMA=   2.1917
  6.5308  3.8727  2.4297  1.8042  1.5217  1.5217  0.9263  1.1040  1.1040  1.1021

 Free energy of the ion-electron system (eV)
  ---------------------------------------------------
  alpha Z        PSCENC =         0.09786705
  Ewald energy   TEWEN  =      2358.08188743
  -Hartree energ DENC   =     -3064.76800261
  -exchange      EXHF   =         0.00000000
  -V(xc)+E(xc)   XCENC  =       105.94256988
  PAW double counting   =      1154.62447810    -1161.71840283
  entropy T*S    EENTRO =        -0.00000000
  eigenvalues    EBANDS =      -368.03091776
  atomic energy  EATOM  =       885.63923014
  Solvation  Ediel_sol  =         0.00000000
  ---------------------------------------------------
  free energy    TOTEN  =       -90.13129060 eV

  energy without entropy =      -90.13129060  energy(sigma->0) =      -90.13129060


--------------------------------------------------------------------------------------------------------




----------------------------------------- Iteration    1(  16)  ---------------------------------------


    POTLOK:  cpu time   13.9719: real time   14.0101
    SETDIJ:  cpu time    0.1335: real time    0.1338
     EDDAV:  cpu time   15.0763: real time   15.1251
       DOS:  cpu time    0.0001: real time    0.0001
    CHARGE:  cpu time    2.3666: real time    2.3762
    MIXING:  cpu time    0.5045: real time    0.5060
    --------------------------------------------
      LOOP:  cpu time   32.0551: real time   32.1557

 eigenvalue-minimisations  :    60
 total energy-change (2. order) :-0.5286275E-02  (-0.5713223E-04)
 number of electron      32.0000000 magnetization 
 augmentation part        0.4439720 magnetization 

 Broyden mixing:
  rms(total) = 0.10347E-02    rms(broyden)= 0.10347E-02
  rms(prec ) = 0.12737E-02
  weight for this iteration     100.00

 eigenvalues of (default mixing * dielectric matrix)
  average eigenvalue GAMMA=   2.2173
  7.0616  4.3474  2.5208  2.1786  1.3643  1.3643  1.4695  1.0322  1.0322  0.9294
  1.0898

 Free energy of the ion-electron system (eV)
  ---------------------------------------------------
  alpha Z        PSCENC =         0.09786705
  Ewald energy   TEWEN  =      2358.08188743
  -Hartree energ DENC   =     -3065.01630297
  -exchange      EXHF   =         0.00000000
  -V(xc)+E(xc)   XCENC  =       105.93259662
  PAW double counting   =      1154.69245579    -1161.78643419
  entropy T*S    EENTRO =        -0.00000000
  eigenvalues    EBANDS =      -367.77787675
  atomic energy  EATOM  =       885.63923014
  Solvation  Ediel_sol  =         0.00000000
  ---------------------------------------------------
  free energy    TOTEN  =       -90.13657688 eV

  energy without entropy =      -90.13657688  energy(sigma->0) =      -90.13657688


--------------------------------------------------------------------------------------------------------




----------------------------------------- Iteration    1(  17)  ---------------------------------------


    POTLOK:  cpu time   14.6719: real time   14.7121
    SETDIJ:  cpu time    0.2537: real time    0.2544
     EDDAV:  cpu time   25.2187: real time   25.2964
       DOS:  cpu time    0.0001: real time    0.0001
    CHARGE:  cpu time    2.3671: real time    2.3768
    MIXING:  cpu time    0.5858: real time    0.5872
    --------------------------------------------
      LOOP:  cpu time   43.0994: real time   43.2316

 eigenvalue-minimisations  :    88
 total energy-change (2. order) :-0.1430423E-02  (-0.1220192E-04)
 number of electron      32.0000000 magnetization 
 augmentation part        0.4437988 magnetization 

 Broyden mixing:
  rms(total) = 0.64128E-03    rms(broyden)= 0.64128E-03
  rms(prec ) = 0.79268E-03
  weight for this iteration     100.00

 eigenvalues of (default mixing * dielectric matrix)
  average eigenvalue GAMMA=   2.3250
  7.8441  4.7130  2.6502  2.6502  1.6824  1.6824  1.3516  1.3516  1.0341  1.0341
  0.9528  0.9528

 Free energy of the ion-electron system (eV)
  ---------------------------------------------------
  alpha Z        PSCENC =         0.09786705
  Ewald energy   TEWEN  =      2358.08188743
  -Hartree energ DENC   =     -3065.17923388
  -exchange      EXHF   =         0.00000000
  -V(xc)+E(xc)   XCENC  =       105.93358317
  PAW double counting   =      1154.84161479    -1161.93603577
  entropy T*S    EENTRO =        -0.00000000
  eigenvalues    EBANDS =      -367.61692023
  atomic energy  EATOM  =       885.63923014
  Solvation  Ediel_sol  =         0.00000000
  ---------------------------------------------------
  free energy    TOTEN  =       -90.13800730 eV

  energy without entropy =      -90.13800730  energy(sigma->0) =      -90.13800730


--------------------------------------------------------------------------------------------------------




----------------------------------------- Iteration    1(  18)  ---------------------------------------


    POTLOK:  cpu time   14.8328: real time   14.8734
    SETDIJ:  cpu time    0.2557: real time    0.2563
     EDDAV:  cpu time   18.8268: real time   18.8864
       DOS:  cpu time    0.0001: real time    0.0001
    CHARGE:  cpu time    2.3656: real time    2.3755
    MIXING:  cpu time    0.6052: real time    0.6067
    --------------------------------------------
      LOOP:  cpu time   36.8884: real time   37.0028

 eigenvalue-minimisations  :    64
 total energy-change (2. order) :-0.1205563E-02  (-0.5697675E-05)
 number of electron      32.0000000 magnetization 
 augmentation part        0.4438395 magnetization 

 Broyden mixing:
  rms(total) = 0.35257E-03    rms(broyden)= 0.35257E-03
  rms(prec ) = 0.41890E-03
  weight for this iteration     100.00

 eigenvalues of (default mixing * dielectric matrix)
  average eigenvalue GAMMA=   2.3211
  8.1593  5.2529  3.1788  2.4532  1.8302  1.3038  1.3038  1.4236  1.4236  0.9957
  0.9957  0.9219  0.9312

 Free energy of the ion-electron system (eV)
  ---------------------------------------------------
  alpha Z        PSCENC =         0.09786705
  Ewald energy   TEWEN  =      2358.08188743
  -Hartree energ DENC   =     -3065.19428872
  -exchange      EXHF   =         0.00000000
  -V(xc)+E(xc)   XCENC  =       105.93013570
  PAW double counting   =      1154.58591866    -1161.67963325
  entropy T*S    EENTRO =        -0.00000000
  eigenvalues    EBANDS =      -367.60032987
  atomic energy  EATOM  =       885.63923014
  Solvation  Ediel_sol  =         0.00000000
  ---------------------------------------------------
  free energy    TOTEN  =       -90.13921286 eV

  energy without entropy =      -90.13921286  energy(sigma->0) =      -90.13921286


--------------------------------------------------------------------------------------------------------




----------------------------------------- Iteration    1(  19)  ---------------------------------------


    POTLOK:  cpu time   14.7921: real time   14.8326
    SETDIJ:  cpu time    0.2550: real time    0.2556
     EDDAV:  cpu time   24.0157: real time   24.0913
       DOS:  cpu time    0.0001: real time    0.0001
    CHARGE:  cpu time    2.3693: real time    2.3791
    MIXING:  cpu time    0.6252: real time    0.6267
    --------------------------------------------
      LOOP:  cpu time   42.0595: real time   42.1897

 eigenvalue-minimisations  :    88
 total energy-change (2. order) :-0.2803765E-03  (-0.9837355E-06)
 number of electron      32.0000000 magnetization 
 augmentation part        0.4438386 magnetization 

 Broyden mixing:
  rms(total) = 0.17885E-03    rms(broyden)= 0.17885E-03
  rms(prec ) = 0.22933E-03
  weight for this iteration     100.00

 eigenvalues of (default mixing * dielectric matrix)
  average eigenvalue GAMMA=   2.4045
  8.5425  5.5778  3.5982  2.7304  2.2974  1.5904  1.5904  1.3636  1.3636  0.9993
  0.9993  1.0548  1.0548  0.8997

 Free energy of the ion-electron system (eV)
  ---------------------------------------------------
  alpha Z        PSCENC =         0.09786705
  Ewald energy   TEWEN  =      2358.08188743
  -Hartree energ DENC   =     -3065.25079171
  -exchange      EXHF   =         0.00000000
  -V(xc)+E(xc)   XCENC  =       105.93188636
  PAW double counting   =      1154.70665717    -1161.80054930
  entropy T*S    EENTRO =        -0.00000000
  eigenvalues    EBANDS =      -367.54568039
  atomic energy  EATOM  =       885.63923014
  Solvation  Ediel_sol  =         0.00000000
  ---------------------------------------------------
  free energy    TOTEN  =       -90.13949324 eV

  energy without entropy =      -90.13949324  energy(sigma->0) =      -90.13949324


--------------------------------------------------------------------------------------------------------




----------------------------------------- Iteration    1(  20)  ---------------------------------------


    POTLOK:  cpu time   14.7795: real time   14.8200
    SETDIJ:  cpu time    0.2541: real time    0.2547
     EDDAV:  cpu time   20.4869: real time   20.5517
       DOS:  cpu time    0.0001: real time    0.0001
    CHARGE:  cpu time    2.3635: real time    2.3731
    MIXING:  cpu time    0.6465: real time    0.6484
    --------------------------------------------
      LOOP:  cpu time   38.5328: real time   38.6525

 eigenvalue-minimisations  :    72
 total energy-change (2. order) :-0.2932929E-03  (-0.3415555E-06)
 number of electron      32.0000000 magnetization 
 augmentation part        0.4438305 magnetization 

 Broyden mixing:
  rms(total) = 0.17555E-03    rms(broyden)= 0.17555E-03
  rms(prec ) = 0.19033E-03
  weight for this iteration     100.00

 eigenvalues of (default mixing * dielectric matrix)
  average eigenvalue GAMMA=   2.3960
  8.7720  5.8867  3.8880  2.8940  2.4621  1.8695  1.3331  1.3331  1.3551  1.3551
  0.9957  0.9957  0.9536  0.9536  0.8921

 Free energy of the ion-electron system (eV)
  ---------------------------------------------------
  alpha Z        PSCENC =         0.09786705
  Ewald energy   TEWEN  =      2358.08188743
  -Hartree energ DENC   =     -3065.27454883
  -exchange      EXHF   =         0.00000000
  -V(xc)+E(xc)   XCENC  =       105.93151099
  PAW double counting   =      1154.72888562    -1161.82299592
  entropy T*S    EENTRO =        -0.00000000
  eigenvalues    EBANDS =      -367.52162302
  atomic energy  EATOM  =       885.63923014
  Solvation  Ediel_sol  =         0.00000000
  ---------------------------------------------------
  free energy    TOTEN  =       -90.13978653 eV

  energy without entropy =      -90.13978653  energy(sigma->0) =      -90.13978653


--------------------------------------------------------------------------------------------------------




----------------------------------------- Iteration    1(  21)  ---------------------------------------


    POTLOK:  cpu time   14.7801: real time   14.8205
    SETDIJ:  cpu time    0.2535: real time    0.2542
     EDDAV:  cpu time   21.2786: real time   21.3456
       DOS:  cpu time    0.0001: real time    0.0001
    CHARGE:  cpu time    2.3694: real time    2.3792
    MIXING:  cpu time    0.6647: real time    0.6666
    --------------------------------------------
      LOOP:  cpu time   39.3486: real time   39.4704

 eigenvalue-minimisations  :    76
 total energy-change (2. order) :-0.6199331E-04  (-0.8457938E-07)
 number of electron      32.0000000 magnetization 
 augmentation part        0.4438434 magnetization 

 Broyden mixing:
  rms(total) = 0.87983E-04    rms(broyden)= 0.87983E-04
  rms(prec ) = 0.99164E-04
  weight for this iteration     100.00

 eigenvalues of (default mixing * dielectric matrix)
  average eigenvalue GAMMA=   2.4083
  8.9241  6.2187  4.3100  2.8146  2.5036  1.8220  1.8220  1.3829  1.3829  1.2189
  1.1480  1.1480  0.9960  0.9960  0.9603  0.8846

 Free energy of the ion-electron system (eV)
  ---------------------------------------------------
  alpha Z        PSCENC =         0.09786705
  Ewald energy   TEWEN  =      2358.08188743
  -Hartree energ DENC   =     -3065.26940729
  -exchange      EXHF   =         0.00000000
  -V(xc)+E(xc)   XCENC  =       105.93118464
  PAW double counting   =      1154.70225913    -1161.79625978
  entropy T*S    EENTRO =        -0.00000000
  eigenvalues    EBANDS =      -367.52660985
  atomic energy  EATOM  =       885.63923014
  Solvation  Ediel_sol  =         0.00000000
  ---------------------------------------------------
  free energy    TOTEN  =       -90.13984852 eV

  energy without entropy =      -90.13984852  energy(sigma->0) =      -90.13984852


--------------------------------------------------------------------------------------------------------




----------------------------------------- Iteration    1(  22)  ---------------------------------------


    POTLOK:  cpu time   14.7498: real time   14.7898
    SETDIJ:  cpu time    0.2566: real time    0.2576
     EDDAV:  cpu time   16.9971: real time   17.0510
       DOS:  cpu time    0.0001: real time    0.0001
    CHARGE:  cpu time    2.3660: real time    2.3753
    MIXING:  cpu time    0.6908: real time    0.6928
    --------------------------------------------
      LOOP:  cpu time   35.0627: real time   35.1712

 eigenvalue-minimisations  :    56
 total energy-change (2. order) :-0.4155353E-04  (-0.2606489E-07)
 number of electron      32.0000000 magnetization 
 augmentation part        0.4438403 magnetization 

 Broyden mixing:
  rms(total) = 0.37938E-04    rms(broyden)= 0.37938E-04
  rms(prec ) = 0.46097E-04
  weight for this iteration     100.00

 eigenvalues of (default mixing * dielectric matrix)
  average eigenvalue GAMMA=   2.3844
  9.0568  6.3836  4.4441  2.9298  2.4833  2.0537  1.3706  1.3706  1.6190  1.4121
  1.2753  1.2753  0.9933  0.9933  0.9914  0.9914  0.8911

 Free energy of the ion-electron system (eV)
  ---------------------------------------------------
  alpha Z        PSCENC =         0.09786705
  Ewald energy   TEWEN  =      2358.08188743
  -Hartree energ DENC   =     -3065.27824695
  -exchange      EXHF   =         0.00000000
  -V(xc)+E(xc)   XCENC  =       105.93136068
  PAW double counting   =      1154.70521161    -1161.79921304
  entropy T*S    EENTRO =        -0.00000000
  eigenvalues    EBANDS =      -367.51798701
  atomic energy  EATOM  =       885.63923014
  Solvation  Ediel_sol  =         0.00000000
  ---------------------------------------------------
  free energy    TOTEN  =       -90.13989008 eV

  energy without entropy =      -90.13989008  energy(sigma->0) =      -90.13989008


--------------------------------------------------------------------------------------------------------




----------------------------------------- Iteration    1(  23)  ---------------------------------------


    POTLOK:  cpu time   14.7350: real time   14.7750
    SETDIJ:  cpu time    0.2539: real time    0.2548
     EDDAV:  cpu time   17.8504: real time   17.9079
       DOS:  cpu time    0.0001: real time    0.0001
    CHARGE:  cpu time    2.3705: real time    2.3802
    MIXING:  cpu time    0.7113: real time    0.7133
    --------------------------------------------
      LOOP:  cpu time   35.9233: real time   36.0366

 eigenvalue-minimisations  :    60
 total energy-change (2. order) :-0.2138061E-04  (-0.5212980E-08)
 number of electron      32.0000000 magnetization 
 augmentation part        0.4438360 magnetization 

 Broyden mixing:
  rms(total) = 0.22769E-04    rms(broyden)= 0.22769E-04
  rms(prec ) = 0.28443E-04
  weight for this iteration     100.00

 eigenvalues of (default mixing * dielectric matrix)
  average eigenvalue GAMMA=   2.4359
  9.1943  6.6752  4.7676  3.4200  2.6978  2.3786  1.7983  1.7983  1.3843  1.3843
  1.2052  1.2052  0.9978  0.9978  1.0747  1.0747  0.8957  0.8957

 Free energy of the ion-electron system (eV)
  ---------------------------------------------------
  alpha Z        PSCENC =         0.09786705
  Ewald energy   TEWEN  =      2358.08188743
  -Hartree energ DENC   =     -3065.27860529
  -exchange      EXHF   =         0.00000000
  -V(xc)+E(xc)   XCENC  =       105.93126684
  PAW double counting   =      1154.70662170    -1161.80063135
  entropy T*S    EENTRO =        -0.00000000
  eigenvalues    EBANDS =      -367.51754799
  atomic energy  EATOM  =       885.63923014
  Solvation  Ediel_sol  =         0.00000000
  ---------------------------------------------------
  free energy    TOTEN  =       -90.13991146 eV

  energy without entropy =      -90.13991146  energy(sigma->0) =      -90.13991146


--------------------------------------------------------------------------------------------------------




----------------------------------------- Iteration    1(  24)  ---------------------------------------


    POTLOK:  cpu time   14.7495: real time   14.7899
    SETDIJ:  cpu time    0.2546: real time    0.2552
     EDDAV:  cpu time   15.2635: real time   15.3119
       DOS:  cpu time    0.0001: real time    0.0001
    CHARGE:  cpu time    2.3684: real time    2.3772
    MIXING:  cpu time    0.7388: real time    0.7409
    --------------------------------------------
      LOOP:  cpu time   33.3771: real time   33.4801

 eigenvalue-minimisations  :    48
 total energy-change (2. order) :-0.1696340E-04  (-0.7714453E-08)
 number of electron      32.0000000 magnetization 
 augmentation part        0.4438389 magnetization 

 Broyden mixing:
  rms(total) = 0.15615E-04    rms(broyden)= 0.15615E-04
  rms(prec ) = 0.17820E-04
  weight for this iteration     100.00

 eigenvalues of (default mixing * dielectric matrix)
  average eigenvalue GAMMA=   2.4080
  9.3008  6.8498  5.1064  3.6273  2.6961  2.4450  1.9399  1.3693  1.3693  1.5207
  1.2814  1.2814  1.2436  0.9852  0.9852  0.9802  0.9802  0.8950  0.8950

 Free energy of the ion-electron system (eV)
  ---------------------------------------------------
  alpha Z        PSCENC =         0.09786705
  Ewald energy   TEWEN  =      2358.08188743
  -Hartree energ DENC   =     -3065.27921434
  -exchange      EXHF   =         0.00000000
  -V(xc)+E(xc)   XCENC  =       105.93123465
  PAW double counting   =      1154.70654518    -1161.80053571
  entropy T*S    EENTRO =        -0.00000000
  eigenvalues    EBANDS =      -367.51694282
  atomic energy  EATOM  =       885.63923014
  Solvation  Ediel_sol  =         0.00000000
  ---------------------------------------------------
  free energy    TOTEN  =       -90.13992842 eV

  energy without entropy =      -90.13992842  energy(sigma->0) =      -90.13992842


--------------------------------------------------------------------------------------------------------




----------------------------------------- Iteration    1(  25)  ---------------------------------------


    POTLOK:  cpu time   14.7402: real time   14.7806
    SETDIJ:  cpu time    0.2552: real time    0.2559
     EDDAV:  cpu time   16.9737: real time   17.0273
       DOS:  cpu time    0.0001: real time    0.0001
    CHARGE:  cpu time    2.3680: real time    2.3779
    MIXING:  cpu time    0.7588: real time    0.7607
    --------------------------------------------
      LOOP:  cpu time   35.0981: real time   35.2069

 eigenvalue-minimisations  :    56
 total energy-change (2. order) :-0.3309004E-05  (-0.1066031E-08)
 number of electron      32.0000000 magnetization 
 augmentation part        0.4438384 magnetization 

 Broyden mixing:
  rms(total) = 0.84086E-05    rms(broyden)= 0.84086E-05
  rms(prec ) = 0.10459E-04
  weight for this iteration     100.00

 eigenvalues of (default mixing * dielectric matrix)
  average eigenvalue GAMMA=   2.4651
  9.4049  7.1332  5.3873  4.0213  2.6412  2.6412  2.2132  1.8326  1.8326  1.3883
  1.3883  1.2634  1.2634  1.0924  1.0924  0.9917  0.9917  0.9420  0.8910  0.8910

 Free energy of the ion-electron system (eV)
  ---------------------------------------------------
  alpha Z        PSCENC =         0.09786705
  Ewald energy   TEWEN  =      2358.08188743
  -Hartree energ DENC   =     -3065.28030732
  -exchange      EXHF   =         0.00000000
  -V(xc)+E(xc)   XCENC  =       105.93126574
  PAW double counting   =      1154.70696225    -1161.80095515
  entropy T*S    EENTRO =        -0.00000000
  eigenvalues    EBANDS =      -367.51588188
  atomic energy  EATOM  =       885.63923014
  Solvation  Ediel_sol  =         0.00000000
  ---------------------------------------------------
  free energy    TOTEN  =       -90.13993173 eV

  energy without entropy =      -90.13993173  energy(sigma->0) =      -90.13993173


--------------------------------------------------------------------------------------------------------




----------------------------------------- Iteration    1(  26)  ---------------------------------------


    POTLOK:  cpu time   14.7533: real time   14.7937
    SETDIJ:  cpu time    0.2551: real time    0.2557
     EDDAV:  cpu time   14.4283: real time   14.4741
       DOS:  cpu time    0.0001: real time    0.0001
    CHARGE:  cpu time    2.3771: real time    2.3866
    MIXING:  cpu time    0.7842: real time    0.7864
    --------------------------------------------
      LOOP:  cpu time   32.6003: real time   32.7012

 eigenvalue-minimisations  :    44
 total energy-change (2. order) :-0.5030172E-05  (-0.1944837E-08)
 number of electron      32.0000000 magnetization 
 augmentation part        0.4438373 magnetization 

 Broyden mixing:
  rms(total) = 0.76249E-05    rms(broyden)= 0.76249E-05
  rms(prec ) = 0.82903E-05
  weight for this iteration     100.00

 eigenvalues of (default mixing * dielectric matrix)
  average eigenvalue GAMMA=   2.4408
  9.4290  7.3570  5.5750  4.2897  3.0049  2.5633  2.3834  2.0202  1.3354  1.3354
  1.4541  1.2790  1.2790  0.9879  0.9879  1.1055  1.1055  1.0189  0.9653  0.8903
  0.8903

 Free energy of the ion-electron system (eV)
  ---------------------------------------------------
  alpha Z        PSCENC =         0.09786705
  Ewald energy   TEWEN  =      2358.08188743
  -Hartree energ DENC   =     -3065.28041846
  -exchange      EXHF   =         0.00000000
  -V(xc)+E(xc)   XCENC  =       105.93126033
  PAW double counting   =      1154.70684602    -1161.80084547
  entropy T*S    EENTRO =        -0.00000000
  eigenvalues    EBANDS =      -367.51576381
  atomic energy  EATOM  =       885.63923014
  Solvation  Ediel_sol  =         0.00000000
  ---------------------------------------------------
  free energy    TOTEN  =       -90.13993676 eV

  energy without entropy =      -90.13993676  energy(sigma->0) =      -90.13993676


--------------------------------------------------------------------------------------------------------




----------------------------------------- Iteration    1(  27)  ---------------------------------------


    POTLOK:  cpu time   14.7475: real time   14.7879
    SETDIJ:  cpu time    0.2544: real time    0.2550
     EDDAV:  cpu time   17.0161: real time   17.0710
       DOS:  cpu time    0.0001: real time    0.0001
    CHARGE:  cpu time    2.3655: real time    2.3756
    MIXING:  cpu time    0.8134: real time    0.8154
    --------------------------------------------
      LOOP:  cpu time   35.1996: real time   35.3094

 eigenvalue-minimisations  :    56
 total energy-change (2. order) :-0.8615327E-06  (-0.1041931E-08)
 number of electron      32.0000000 magnetization 
 augmentation part        0.4438387 magnetization 

 Broyden mixing:
  rms(total) = 0.46612E-05    rms(broyden)= 0.46612E-05
  rms(prec ) = 0.51500E-05
  weight for this iteration     100.00

 eigenvalues of (default mixing * dielectric matrix)
  average eigenvalue GAMMA=   2.3972
  9.4401  7.4237  5.6423  4.3258  3.1144  2.5474  2.3143  2.0402  1.4210  1.4210
  1.3690  1.3690  1.4075  1.2659  0.9920  0.9920  1.0901  1.0574  0.9815  0.8855
  0.8195  0.8195

 Free energy of the ion-electron system (eV)
  ---------------------------------------------------
  alpha Z        PSCENC =         0.09786705
  Ewald energy   TEWEN  =      2358.08188743
  -Hartree energ DENC   =     -3065.28034408
  -exchange      EXHF   =         0.00000000
  -V(xc)+E(xc)   XCENC  =       105.93125619
  PAW double counting   =      1154.70647419    -1161.80047018
  entropy T*S    EENTRO =        -0.00000000
  eigenvalues    EBANDS =      -367.51583836
  atomic energy  EATOM  =       885.63923014
  Solvation  Ediel_sol  =         0.00000000
  ---------------------------------------------------
  free energy    TOTEN  =       -90.13993762 eV

  energy without entropy =      -90.13993762  energy(sigma->0) =      -90.13993762


--------------------------------------------------------------------------------------------------------




----------------------------------------- Iteration    1(  28)  ---------------------------------------


    POTLOK:  cpu time   14.7654: real time   14.8058
    SETDIJ:  cpu time    0.2544: real time    0.2550
     EDDAV:  cpu time   15.2848: real time   15.3345
       DOS:  cpu time    0.0001: real time    0.0001
    CHARGE:  cpu time    2.3690: real time    2.3786
    MIXING:  cpu time    0.8416: real time    0.8440
    --------------------------------------------
      LOOP:  cpu time   33.5176: real time   33.6223

 eigenvalue-minimisations  :    48
 total energy-change (2. order) :-0.6230923E-06  (-0.7886332E-09)
 number of electron      32.0000000 magnetization 
 augmentation part        0.4438374 magnetization 

 Broyden mixing:
  rms(total) = 0.43792E-05    rms(broyden)= 0.43792E-05
  rms(prec ) = 0.47224E-05
  weight for this iteration     100.00

 eigenvalues of (default mixing * dielectric matrix)
  average eigenvalue GAMMA=   2.4145
  9.4808  7.6369  5.8249  4.6103  3.3360  2.6940  2.3423  2.2475  1.9811  1.3543
  1.3543  1.4885  1.2658  1.2658  1.1372  1.1372  0.9791  0.9791  0.9737  0.9737
  0.8801  0.8801  0.7110

 Free energy of the ion-electron system (eV)
  ---------------------------------------------------
  alpha Z        PSCENC =         0.09786705
  Ewald energy   TEWEN  =      2358.08188743
  -Hartree energ DENC   =     -3065.28043452
  -exchange      EXHF   =         0.00000000
  -V(xc)+E(xc)   XCENC  =       105.93125730
  PAW double counting   =      1154.70638066    -1161.80037744
  entropy T*S    EENTRO =        -0.00000000
  eigenvalues    EBANDS =      -367.51574887
  atomic energy  EATOM  =       885.63923014
  Solvation  Ediel_sol  =         0.00000000
  ---------------------------------------------------
  free energy    TOTEN  =       -90.13993825 eV

  energy without entropy =      -90.13993825  energy(sigma->0) =      -90.13993825


--------------------------------------------------------------------------------------------------------




----------------------------------------- Iteration    1(  29)  ---------------------------------------


    POTLOK:  cpu time   14.7212: real time   14.7615
    SETDIJ:  cpu time    0.2549: real time    0.2555
     EDDAV:  cpu time   13.5598: real time   13.6038
       DOS:  cpu time    0.0001: real time    0.0001
    CHARGE:  cpu time    2.3695: real time    2.3790
    MIXING:  cpu time    0.8690: real time    0.8715
    --------------------------------------------
      LOOP:  cpu time   31.7768: real time   31.8760

 eigenvalue-minimisations  :    40
 total energy-change (2. order) :-0.5608294E-06  (-0.5785346E-09)
 number of electron      32.0000000 magnetization 
 augmentation part        0.4438387 magnetization 

 Broyden mixing:
  rms(total) = 0.33338E-05    rms(broyden)= 0.33338E-05
  rms(prec ) = 0.35217E-05
  weight for this iteration     100.00

 eigenvalues of (default mixing * dielectric matrix)
  average eigenvalue GAMMA=   2.4146
  9.5217  7.8273  6.0625  4.8314  3.6708  2.7319  2.5349  2.3111  2.0230  1.4940
  1.3497  1.3497  1.2624  1.2624  1.1888  1.1888  0.9993  0.9993  1.0020  1.0020
  0.9482  0.8844  0.8375  0.6673

 Free energy of the ion-electron system (eV)
  ---------------------------------------------------
  alpha Z        PSCENC =         0.09786705
  Ewald energy   TEWEN  =      2358.08188743
  -Hartree energ DENC   =     -3065.28036515
  -exchange      EXHF   =         0.00000000
  -V(xc)+E(xc)   XCENC  =       105.93125435
  PAW double counting   =      1154.70636048    -1161.80035688
  entropy T*S    EENTRO =        -0.00000000
  eigenvalues    EBANDS =      -367.51581624
  atomic energy  EATOM  =       885.63923014
  Solvation  Ediel_sol  =         0.00000000
  ---------------------------------------------------
  free energy    TOTEN  =       -90.13993881 eV

  energy without entropy =      -90.13993881  energy(sigma->0) =      -90.13993881


--------------------------------------------------------------------------------------------------------




----------------------------------------- Iteration    1(  30)  ---------------------------------------


    POTLOK:  cpu time   14.7574: real time   14.7978
    SETDIJ:  cpu time    0.2549: real time    0.2555
     EDDAV:  cpu time   18.7466: real time   18.8056
       DOS:  cpu time    0.0001: real time    0.0001
    CHARGE:  cpu time    2.3611: real time    2.3704
    MIXING:  cpu time    0.9004: real time    0.9029
    --------------------------------------------
      LOOP:  cpu time   37.0228: real time   37.1371

 eigenvalue-minimisations  :    64
 total energy-change (2. order) :-0.1658550E-06  (-0.3125482E-09)
 number of electron      32.0000000 magnetization 
 augmentation part        0.4438376 magnetization 

 Broyden mixing:
  rms(total) = 0.25461E-05    rms(broyden)= 0.25461E-05
  rms(prec ) = 0.26677E-05
  weight for this iteration     100.00

 eigenvalues of (default mixing * dielectric matrix)
  average eigenvalue GAMMA=   2.3867
  9.5438  7.9166  6.1579  4.9306  3.7217  2.6634  2.6634  2.1659  2.1659  1.5977
  1.3090  1.3090  1.3817  1.3817  1.2033  1.1608  1.1608  0.9934  0.9934  0.9794
  0.9794  0.9316  0.8895  0.8895  0.5769

 Free energy of the ion-electron system (eV)
  ---------------------------------------------------
  alpha Z        PSCENC =         0.09786705
  Ewald energy   TEWEN  =      2358.08188743
  -Hartree energ DENC   =     -3065.28037928
  -exchange      EXHF   =         0.00000000
  -V(xc)+E(xc)   XCENC  =       105.93125518
  PAW double counting   =      1154.70628196    -1161.80027949
  entropy T*S    EENTRO =        -0.00000000
  eigenvalues    EBANDS =      -367.51580198
  atomic energy  EATOM  =       885.63923014
  Solvation  Ediel_sol  =         0.00000000
  ---------------------------------------------------
  free energy    TOTEN  =       -90.13993897 eV

  energy without entropy =      -90.13993897  energy(sigma->0) =      -90.13993897


--------------------------------------------------------------------------------------------------------




----------------------------------------- Iteration    1(  31)  ---------------------------------------


    POTLOK:  cpu time   14.7713: real time   14.8117
    SETDIJ:  cpu time    0.2563: real time    0.2569
     EDDAV:  cpu time   18.7286: real time   18.7877
       DOS:  cpu time    0.0001: real time    0.0001
    --------------------------------------------
      LOOP:  cpu time   33.7583: real time   33.8610

 eigenvalue-minimisations  :    64
 total energy-change (2. order) :-0.8917823E-07  (-0.1810854E-09)
 number of electron      32.0000000 magnetization 
 augmentation part        0.4438376 magnetization 

 Free energy of the ion-electron system (eV)
  ---------------------------------------------------
  alpha Z        PSCENC =         0.09786705
  Ewald energy   TEWEN  =      2358.08188743
  -Hartree energ DENC   =     -3065.28034694
  -exchange      EXHF   =         0.00000000
  -V(xc)+E(xc)   XCENC  =       105.93125323
  PAW double counting   =      1154.70638873    -1161.80038580
  entropy T*S    EENTRO =        -0.00000000
  eigenvalues    EBANDS =      -367.51583291
  atomic energy  EATOM  =       885.63923014
  Solvation  Ediel_sol  =         0.00000000
  ---------------------------------------------------
  free energy    TOTEN  =       -90.13993906 eV

  energy without entropy =      -90.13993906  energy(sigma->0) =      -90.13993906


--------------------------------------------------------------------------------------------------------




 average (electrostatic) potential at core
  the test charge radii are     0.6991  0.5883
  (the norm of the test charge is              1.0000)
       1 -58.0730       2 -58.2168       3 -58.1732       4 -58.2169       5 -58.0716
       6 -39.2045       7 -39.2124       8 -39.2167       9 -39.1426      10 -39.1482
      11 -39.1483      12 -39.1444      13 -39.1405      14 -39.1515      15 -39.2059
      16 -39.2204      17 -39.2052
 
 
 
 E-fermi :  -7.4327     XC(G=0):  -0.0539     alpha+bet : -0.0194


 k-point     1 :       0.0000    0.0000    0.0000
  band No.  band energies     occupation 
      1     -19.8543      2.00000
      2     -18.5229      2.00000
      3     -16.5731      2.00000
      4     -14.5984      2.00000
      5     -14.0367      2.00000
      6     -11.6015      2.00000
      7     -10.6598      2.00000
      8     -10.4583      2.00000
      9      -9.7956      2.00000
     10      -9.4769      2.00000
     11      -9.0074      2.00000
     12      -8.4455      2.00000
     13      -7.9069      2.00000
     14      -7.7830      2.00000
     15      -7.5481      2.00000
     16      -7.4896      2.00000
     17      -0.4967      0.00000
     18      -0.1802      0.00000
     19      -0.0852      0.00000
     20      -0.0381      0.00000
     21       0.0115      0.00000
     22       0.1203      0.00000
     23       0.1233      0.00000
     24       0.1392      0.00000
     25       0.1398      0.00000
     26       0.1424      0.00000
     27       0.1586      0.00000
     28       0.2373      0.00000


--------------------------------------------------------------------------------------------------------


 soft charge-density along one line, spin component           1
         0         1         2         3         4         5         6         7         8         9
 total charge-density along one line
 
 pseudopotential strength for first ion, spin component:           1
 10.230 -15.914   0.000  -0.000   0.000  -0.003   0.000  -0.004
-15.914  27.746  -0.000   0.000  -0.000   0.004  -0.000   0.005
  0.000  -0.000  -4.323  -0.000   0.001   2.727   0.001  -0.006
 -0.000   0.000  -0.000  -4.323  -0.000   0.001   2.730   0.001
  0.000  -0.000   0.001  -0.000  -4.321  -0.006   0.001   2.722
 -0.003   0.004   2.727   0.001  -0.006  44.078  -0.001   0.007
  0.000  -0.000   0.001   2.730   0.001  -0.001  44.075  -0.001
 -0.004   0.005  -0.006   0.001   2.722   0.007  -0.001  44.084
 total augmentation occupancy for first ion, spin component:           1
  1.563   0.044  -0.010   0.002  -0.013  -0.001   0.000  -0.002
  0.044   0.001  -0.001   0.000  -0.001   0.000  -0.000   0.000
 -0.010  -0.001   1.282   0.003  -0.024   0.052  -0.000  -0.000
  0.002   0.000   0.003   1.296   0.004  -0.000   0.052   0.000
 -0.013  -0.001  -0.024   0.004   1.265  -0.000   0.000   0.052
 -0.001   0.000   0.052  -0.000  -0.000   0.002  -0.000   0.000
  0.000  -0.000  -0.000   0.052   0.000  -0.000   0.002  -0.000
 -0.002   0.000  -0.000   0.000   0.052   0.000  -0.000   0.002


------------------------ aborting loop because EDIFF is reached ----------------------------------------


    CHARGE:  cpu time    2.3582: real time    2.3678
    FORLOC:  cpu time    2.1251: real time    2.1309
    FORNL :  cpu time    3.5454: real time    3.5552
    STRESS:  cpu time   13.9943: real time   14.0326
    FORHAR:  cpu time    5.4497: real time    5.4647
    MIXING:  cpu time    0.9312: real time    0.9338
    OFIELD:  cpu time    0.0000: real time    0.0000

  FORCE on cell =-STRESS in cart. coord.  units (eV):
  Direction    XX          YY          ZZ          XY          YZ          ZX
  --------------------------------------------------------------------------------------
  Alpha Z     0.09787     0.09787     0.09787
  Ewald    1479.03855   537.64358   341.40030   -73.90982     9.08715  -163.05171
  Hartree  1605.59742   806.34378   653.33918   -62.51698     8.03120  -136.26545
  E(xc)    -111.16148  -111.38000  -111.47038    -0.01788     0.00017    -0.04462
  Local   -3361.40910 -1610.70589 -1253.82070   137.22239   -17.27928   301.82906
  n-local   -66.86592   -68.05243   -69.42624    -0.09716    -0.00124    -0.35951
  augment    -0.10015    -0.17279    -0.22008    -0.00578     0.00109    -0.01704
  Kinetic   456.54442   447.86004   442.26536    -0.67678     0.19263    -2.02531
  Fock        0.00000     0.00000     0.00000     0.00000     0.00000     0.00000
  -------------------------------------------------------------------------------------
  Total       1.74160     1.63415     2.16531    -0.00202     0.03172     0.06543
  in kB       0.06508     0.06107     0.08091    -0.00008     0.00119     0.00244
  external pressure =        0.07 kB  Pullay stress =        0.00 kB


 VOLUME and BASIS-vectors are now :
 -----------------------------------------------------------------------------
  energy-cutoff  :     1600.00
  volume of cell :    42875.00
      direct lattice vectors                 reciprocal lattice vectors
    35.000000000  0.000000000  0.000000000     0.028571429  0.000000000  0.000000000
     0.000000000 35.000000000  0.000000000     0.000000000  0.028571429  0.000000000
     0.000000000  0.000000000 35.000000000     0.000000000  0.000000000  0.028571429

  length of vectors
    35.000000000 35.000000000 35.000000000     0.028571429  0.028571429  0.028571429


 FORCES acting on ions
    electron-ion (+dipol)            ewald-force                    non-local-force                 convergence-correction
 -----------------------------------------------------------------------------------------------
   0.141E+03 0.346E+02 -.192E+02   -.141E+03 -.343E+02 0.192E+02   -.261E+00 -.151E+00 -.199E-01   -.759E-05 0.108E-05 0.137E-05
   0.535E+02 -.951E+02 -.108E+02   -.532E+02 0.948E+02 0.108E+02   -.384E+00 0.226E-01 0.512E-01   -.173E-04 0.890E-05 0.287E-05
   0.607E+01 0.806E+02 -.122E+01   -.602E+01 -.800E+02 0.124E+01   -.366E-01 -.282E+00 -.497E-01   -.708E-06 -.854E-05 0.771E-07
   -.672E+02 -.853E+02 0.133E+02   0.669E+02 0.850E+02 -.132E+02   0.395E+00 -.221E-01 -.441E-01   0.193E-04 0.569E-05 -.324E-05
   -.134E+03 0.560E+02 0.170E+02   0.134E+03 -.556E+02 -.170E+02   0.236E+00 -.221E+00 -.447E-01   0.791E-05 0.997E-07 -.159E-05
   0.366E+02 0.390E+02 0.491E+02   -.379E+02 -.422E+02 -.539E+02   0.114E+01 0.306E+01 0.455E+01   -.208E-06 0.980E-06 0.139E-05
   0.213E+02 0.443E+02 -.533E+02   -.211E+02 -.480E+02 0.579E+02   -.220E+00 0.353E+01 -.435E+01   -.623E-06 0.112E-05 -.109E-05
   0.652E+02 -.342E+02 -.113E+02   -.698E+02 0.379E+02 0.121E+02   0.433E+01 -.349E+01 -.801E+00   0.200E-05 -.141E-05 -.306E-06
   0.940E+00 -.528E+02 -.577E+02   -.112E-01 0.562E+02 0.624E+02   -.874E+00 -.325E+01 -.445E+01   -.128E-05 0.167E-05 0.146E-05
   0.163E+02 -.558E+02 0.522E+02   -.167E+02 0.594E+02 -.568E+02   0.327E+00 -.348E+01 0.435E+01   -.159E-05 0.176E-05 -.929E-06
   -.448E+01 0.531E+02 -.571E+02   0.492E+01 -.567E+02 0.617E+02   -.412E+00 0.338E+01 -.438E+01   0.302E-06 -.428E-05 0.435E-05
   0.128E+02 0.527E+02 0.563E+02   -.138E+02 -.562E+02 -.609E+02   0.948E+00 0.333E+01 0.433E+01   -.101E-05 -.423E-05 -.428E-05
   -.247E+02 -.543E+02 -.504E+02   0.256E+02 0.580E+02 0.549E+02   -.866E+00 -.353E+01 -.422E+01   0.185E-05 0.146E-05 0.785E-06
   -.886E+01 -.502E+02 0.593E+02   0.846E+01 0.536E+02 -.641E+02   0.382E+00 -.321E+01 0.455E+01   0.155E-05 0.136E-05 -.146E-05
   -.149E+02 0.476E+02 0.527E+02   0.143E+02 -.513E+02 -.573E+02   0.681E+00 0.349E+01 0.433E+01   0.865E-06 0.133E-05 0.143E-05
   -.699E+02 -.235E+02 0.109E+02   0.750E+02 0.264E+02 -.117E+02   -.484E+01 -.275E+01 0.794E+00   -.260E-05 -.133E-05 0.340E-06
   -.295E+02 0.437E+02 -.498E+02   0.302E+02 -.470E+02 0.547E+02   -.583E+00 0.316E+01 -.459E+01   0.400E-06 0.114E-05 -.176E-05
 -----------------------------------------------------------------------------------------------
   0.335E-01 0.422E+00 -.835E-02   -.213E-13 -.711E-13 0.284E-13   -.335E-01 -.422E+00 0.834E-02   0.120E-05 0.681E-05 -.578E-06
 
 
 POSITION                                       TOTAL-FORCE (eV/Angst)
 -----------------------------------------------------------------------------------
     32.72466     34.86493      0.83133         0.154896      0.172973     -0.059100
     34.03830      0.61928      0.66940        -0.076651     -0.278628      0.014873
      0.22650     34.68529      0.47999         0.011236      0.318162     -0.032600
      1.54300      0.42117      0.26900         0.049491     -0.269386      0.043026
      2.72758     34.47314      0.13746        -0.132015      0.157089      0.003780
     32.50928     34.27207     34.94243        -0.088363     -0.190157     -0.246394
     32.77368     34.18155      1.67882        -0.036897     -0.189813      0.259253
     31.88797      0.54494      0.98740        -0.248090      0.155200      0.069150
     34.21130      1.25043      1.54470         0.055120      0.183770      0.236065
     33.97382      1.29545     34.81354        -0.031726      0.205093     -0.236822
      0.30944     34.02486      1.34804         0.037089     -0.185242      0.250009
      0.03915     34.03400     34.62121        -0.056316     -0.205059     -0.236935
      1.71164      1.10777      1.10245         0.045870      0.193087      0.237410
      1.46609      1.04374     34.37471        -0.017659      0.190175     -0.257983
      2.58874     33.79679     34.29424        -0.007633     -0.212824     -0.249842
      3.66150      0.01169     34.98403         0.279474      0.137833     -0.043605
      2.83519     33.86259      1.03408         0.062174     -0.182274      0.249716
 -----------------------------------------------------------------------------------
    total drift:                                0.000005     -0.000007     -0.000003


--------------------------------------------------------------------------------------------------------



  FREE ENERGIE OF THE ION-ELECTRON SYSTEM (eV)
  ---------------------------------------------------
  free  energy   TOTEN  =       -90.13993906 eV

  energy  without entropy=      -90.13993906  energy(sigma->0) =      -90.13993906
 


--------------------------------------------------------------------------------------------------------


    POTLOK:  cpu time   15.0597: real time   15.1008


--------------------------------------------------------------------------------------------------------


 writing wavefunctions
     LOOP+:  cpu time 1732.5970: real time 1737.9210
    4ORBIT:  cpu time    0.0000: real time    0.0000

 total amount of memory used by VASP on root node  3579791. kBytes
========================================================================

   base      :      30000. kBytes
   nonl-proj :     186923. kBytes
   fftplans  :    1215227. kBytes
   grid      :    2104012. kBytes
   one-center:         12. kBytes
   wavefun   :      43617. kBytes
 
  
  
 General timing and accounting informations for this job:
 ========================================================
  
                  Total CPU time used (sec):     2589.325
                            User time (sec):     2353.050
                          System time (sec):      236.275
                         Elapsed time (sec):     2597.553
  
                   Maximum memory used (kb):     4832676.
                   Average memory used (kb):           0.
  
                          Minor page faults:       202792
                          Major page faults:            3
                 Voluntary context switches:        34705
 
 PROFILE, used timers:      14
 =============================
 
 index                 routine                    time                            calls level
----------------------------------------------------------------------------------------------
    1    total_time                         2597.554557                                1   1
    2      w1_copy                               3.255242                           2275   2
    3      fftwav_mpi                          173.116123                            871   2
    4      fftext_mpi                            0.931913                              7   2
    5      overl                                 0.001683                           1296   2
    6      orth1                                 4.950535                           1336   2
    7      lincom                                0.334552                             32   2
    8      eccp                                  7.449379                            217   2
    9      hamiltmu                            284.967337                            445   2
   10        vhamil                               37.251570                          756   3
   11        overl1                                0.001185                          756   3
   12        kinhamil                            124.076651                          756   3
   13          fftext_mpi                          123.043247                        756   4
   14      pdssyex_zheevx                        0.071534                             31   2
 
 Flat profile
 ============
 
             routine name                   CPU           calls
 ---------------------------------------------------------------
 total_time                           2122.476259           1
 fftwav_mpi                            173.116123         871
 fftext_mpi                            123.975160         763
 hamiltmu                              123.637931         445
 vhamil                                 37.251570         756
 eccp                                    7.449379         217
 orth1                                   4.950535        1336
 w1_copy                                 3.255242        2275
 kinhamil                                1.033404         756
 lincom                                  0.334552          32
 pdssyex_zheevx                          0.071534          31
 overl                                   0.001683        1296
 overl1                                  0.001185         756
 ---------------------------------------------------------------
  summed up times    2597.55455708504     
 
Profiling took   0.009078  0.004886  0.003503  0.003493 seconds
Profiling took   0.004731 seconds
