 vasp.6.1.2 22Jul20 (build Jan  6 2021 09:55:43) gamma-only                      
 executed on             LinuxPGI date 2023.10.20  01:36:15
 running on   32 total cores
 distrk:  each k-point on   32 cores,    1 groups
 distr:  one band on NCORE=   1 cores,   32 groups


--------------------------------------------------------------------------------------------------------


 INCAR:
 POTCAR:    PAW_PBE C 08Apr2002                   
 POTCAR:    PAW_PBE O 08Apr2002                   
 -----------------------------------------------------------------------------
|                                                                             |
|           W    W    AA    RRRRR   N    N  II  N    N   GGGG   !!!           |
|           W    W   A  A   R    R  NN   N  II  NN   N  G    G  !!!           |
|           W    W  A    A  R    R  N N  N  II  N N  N  G       !!!           |
|           W WW W  AAAAAA  RRRRR   N  N N  II  N  N N  G  GGG   !            |
|           WW  WW  A    A  R   R   N   NN  II  N   NN  G    G                |
|           W    W  A    A  R    R  N    N  II  N    N   GGGG   !!!           |
|                                                                             |
|     For optimal performance we recommend to set                             |
|       NCORE = 4 - approx SQRT(number of cores).                             |
|     NCORE specifies how many cores store one orbital (NPAR=cpu/NCORE).      |
|     This setting can greatly improve the performance of VASP for DFT.       |
|     The default, NCORE=1 might be grossly inefficient on modern             |
|     multi-core architectures or massively parallel machines. Do your        |
|     own testing!!!!                                                         |
|     Unfortunately you need to use the default for GW and RPA                |
|     calculations (for HF NCORE is supported but not extensively tested      |
|     yet).                                                                   |
|                                                                             |
 -----------------------------------------------------------------------------

 POTCAR:    PAW_PBE C 08Apr2002                   
   VRHFIN =C: s2p2                                                                                  
   LEXCH  = PE                                                                                      
   EATOM  =   147.1560 eV,   10.8157 Ry                                                             
                                                                                                    
   TITEL  = PAW_PBE C 08Apr2002                                                                     
   LULTRA =        F    use ultrasoft PP ?                                                          
   IUNSCR =        1    unscreen: 0-lin 1-nonlin 2-no                                               
   RPACOR =    1.200    partial core radius                                                         
   POMASS =   12.011; ZVAL   =    4.000    mass and valenz                                          
   RCORE  =    1.500    outmost cutoff radius                                                       
   RWIGS  =    1.630; RWIGS  =    0.863    wigner-seitz radius (au A)                               
   ENMAX  =  400.000; ENMIN  =  300.000 eV                                                          
   ICORE  =        2    local potential                                                             
   LCOR   =        T    correct aug charges                                                         
   LPAW   =        T    paw PP                                                                      
   EAUG   =  644.873                                                                                
   DEXC   =    0.000                                                                                
   RMAX   =    1.529    core radius for proj-oper                                                   
   RAUG   =    1.300    factor for augmentation sphere                                              
   RDEP   =    1.501    radius for radial grids                                                     
   RDEPT  =    1.300    core radius for aug-charge                                                  
                                                                                                    
   Atomic configuration                                                                             
    4 entries                                                                                       
     n  l   j            E        occ.                                                              
     1  0  0.50      -273.3789   2.0000                                                             
     2  0  0.50       -13.7508   2.0000                                                             
     2  1  0.50        -5.2854   2.0000                                                             
     3  2  1.50        -5.4423   0.0000                                                             
   Description                                                                                      
     l       E           TYP  RCUT    TYP  RCUT                                                     
     0    -13.7508458     23  1.200                                                                 
     0     -8.2022199     23  1.200                                                                 
     1     -5.2854383     23  1.500                                                                 
     1     34.0145650     23  1.500                                                                 
     2     -5.4423304      7  1.500                                                                 
  local pseudopotential read in
  partial core-charges read in
  partial kinetic energy density read in
  atomic valenz-charges read in
  non local Contribution for L=            0  read in
    real space projection operators read in
  non local Contribution for L=            0  read in
    real space projection operators read in
  non local Contribution for L=            1  read in
    real space projection operators read in
  non local Contribution for L=            1  read in
    real space projection operators read in
    PAW grid and wavefunctions read in
 
   number of l-projection  operators is LMAX  =            4
   number of lm-projection operators is LMMAX =            8
 
 POTCAR:    PAW_PBE O 08Apr2002                   
   VRHFIN =O: s2p4                                                                                  
   LEXCH  = PE                                                                                      
   EATOM  =   432.3788 eV,   31.7789 Ry                                                             
                                                                                                    
   TITEL  = PAW_PBE O 08Apr2002                                                                     
   LULTRA =        F    use ultrasoft PP ?                                                          
   IUNSCR =        1    unscreen: 0-lin 1-nonlin 2-no                                               
   RPACOR =    1.200    partial core radius                                                         
   POMASS =   16.000; ZVAL   =    6.000    mass and valenz                                          
   RCORE  =    1.520    outmost cutoff radius                                                       
   RWIGS  =    1.550; RWIGS  =    0.820    wigner-seitz radius (au A)                               
   ENMAX  =  400.000; ENMIN  =  300.000 eV                                                          
   ICORE  =        2    local potential                                                             
   LCOR   =        T    correct aug charges                                                         
   LPAW   =        T    paw PP                                                                      
   EAUG   =  605.392                                                                                
   DEXC   =    0.000                                                                                
   RMAX   =    1.553    core radius for proj-oper                                                   
   RAUG   =    1.300    factor for augmentation sphere                                              
   RDEP   =    1.550    radius for radial grids                                                     
   RDEPT  =    1.329    core radius for aug-charge                                                  
                                                                                                    
   Atomic configuration                                                                             
    4 entries                                                                                       
     n  l   j            E        occ.                                                              
     1  0  0.50      -514.6923   2.0000                                                             
     2  0  0.50       -23.9615   2.0000                                                             
     2  1  0.50        -9.0305   4.0000                                                             
     3  2  1.50        -9.5241   0.0000                                                             
   Description                                                                                      
     l       E           TYP  RCUT    TYP  RCUT                                                     
     0    -23.9615318     23  1.200                                                                 
     0     -9.5240782     23  1.200                                                                 
     1     -9.0304911     23  1.520                                                                 
     1      8.1634956     23  1.520                                                                 
     2     -9.5240782      7  1.500                                                                 
  local pseudopotential read in
  partial core-charges read in
  partial kinetic energy density read in
  kinetic energy density of atom read in
  atomic valenz-charges read in
  non local Contribution for L=            0  read in
    real space projection operators read in
  non local Contribution for L=            0  read in
    real space projection operators read in
  non local Contribution for L=            1  read in
    real space projection operators read in
  non local Contribution for L=            1  read in
    real space projection operators read in
    PAW grid and wavefunctions read in
 
   number of l-projection  operators is LMAX  =            4
   number of lm-projection operators is LMMAX =            8
 
  PAW_PBE C 08Apr2002                   :
 energy of atom  1       EATOM= -147.1560
 kinetic energy error for atom=    0.0010 (will be added to EATOM!!)
  PAW_PBE O 08Apr2002                   :
 energy of atom  2       EATOM= -432.3788
 kinetic energy error for atom=    0.0022 (will be added to EATOM!!)
 
 
 POSCAR:  C  O
  positions in cartesian coordinates
  No initial velocities read in
 exchange correlation table for  LEXCH =        8
   RHO(1)=    0.500       N(1)  =     2000
   RHO(2)=  100.500       N(2)  =     4000
 


--------------------------------------------------------------------------------------------------------


 ion  position               nearest neighbor table
   1  0.000  0.002  0.000-   3 1.17   4 1.17
   2  1.000  0.158  0.000-   5 1.17   6 1.17
   3  0.000  0.035  0.000-   1 1.17
   4  0.000  0.968  0.000-   1 1.17
   5  1.000  0.158  0.034-   2 1.17
   6  0.000  0.158  0.967-   2 1.17
 
  LATTYP: Found a simple cubic cell.
 ALAT       =    35.0000000000
  
  Lattice vectors:
  
 A1 = (  35.0000000000,   0.0000000000,   0.0000000000)
 A2 = (   0.0000000000,  35.0000000000,   0.0000000000)
 A3 = (   0.0000000000,   0.0000000000,  35.0000000000)


Analysis of symmetry for initial positions (statically):
=====================================================================
 Subroutine PRICEL returns:
 Original cell was already a primitive cell.
 

 Routine SETGRP: Setting up the symmetry group for a 
 simple cubic supercell.


 Subroutine GETGRP returns: Found  1 space group operations
 (whereof  1 operations were pure point group operations)
 out of a pool of 48 trial point group operations.


The static configuration has the point symmetry C_1 .


Analysis of symmetry for dynamics (positions and initial velocities):
=====================================================================
 Subroutine PRICEL returns:
 Original cell was already a primitive cell.
 

 Routine SETGRP: Setting up the symmetry group for a 
 simple cubic supercell.


 Subroutine GETGRP returns: Found  1 space group operations
 (whereof  1 operations were pure point group operations)
 out of a pool of 48 trial point group operations.


The dynamic configuration has the point symmetry C_1 .


 Subroutine INISYM returns: Found  1 space group operations
 (whereof  1 operations are pure point group operations),
 and found     1 'primitive' translations


----------------------------------------------------------------------------------------

                                     Primitive cell                                     

  volume of cell :   42875.0000

  direct lattice vectors                    reciprocal lattice vectors
    35.000000000  0.000000000  0.000000000     0.028571429  0.000000000  0.000000000
     0.000000000 35.000000000  0.000000000     0.000000000  0.028571429  0.000000000
     0.000000000  0.000000000 35.000000000     0.000000000  0.000000000  0.028571429

  length of vectors
    35.000000000 35.000000000 35.000000000     0.028571429  0.028571429  0.028571429

  position of ions in fractional coordinates (direct lattice)
     0.000000000  0.001628171  0.000000000
     0.999957287  0.157919327  0.000215536
     0.000000000  0.035063029  0.000000000
     0.000000000  0.968193314  0.000000000
     0.999522117  0.157666472  0.033646605
     0.000392457  0.158172181  0.966784468

  ion indices of the primitive-cell ions
   primitive index   ion index
                 1           1
                 2           2
                 3           3
                 4           4
                 5           5
                 6           6

----------------------------------------------------------------------------------------

 
 
 KPOINTS: g                                       

Automatic generation of k-mesh.
Space group operators:
 irot       det(A)        alpha          n_x          n_y          n_z        tau_x        tau_y        tau_z
    1     1.000000     0.000000     1.000000     0.000000     0.000000     0.000000     0.000000     0.000000
 
 Subroutine IBZKPT returns following result:
 ===========================================
 
 Found      1 irreducible k-points:
 
 Following reciprocal coordinates:
            Coordinates               Weight
  0.000000  0.000000  0.000000      1.000000
 
 Following cartesian coordinates:
            Coordinates               Weight
  0.000000  0.000000  0.000000      1.000000
 


--------------------------------------------------------------------------------------------------------




 Dimension of arrays:
   k-points           NKPTS =      1   k-points in BZ     NKDIM =      1   number of bands    NBANDS=     32
   number of dos      NEDOS =    301   number of ions     NIONS =      6
   non local maximal  LDIM  =      4   non local SUM 2l+1 LMDIM =      8
   total plane-waves  NPLWV = ******
   max r-space proj   IRMAX =      1   max aug-charges    IRDMAX=  16541
   dimension x,y,z NGX =   378 NGY =  378 NGZ =  378
   dimension x,y,z NGXF=   756 NGYF=  756 NGZF=  756
   support grid    NGXF=   756 NGYF=  756 NGZF=  756
   ions per type =               2   4
   NGX,Y,Z   is equivalent  to a cutoff of  17.95, 17.95, 17.95 a.u.
   NGXF,Y,Z  is equivalent  to a cutoff of  35.91, 35.91, 35.91 a.u.

 SYSTEM =  C                                       
 POSCAR =   C  O                                   

 Startparameter for this run:
   NWRITE =      2    write-flag & timer
   PREC   = acc       normal or accurate (medium, high low for compatibility)
   ISTART =      0    job   : 0-new  1-cont  2-samecut
   ICHARG =      2    charge: 1-file 2-atom 10-const
   ISPIN  =      1    spin polarized calculation?
   LNONCOLLINEAR =      F non collinear calculations
   LSORBIT =      F    spin-orbit coupling
   INIWAV =      1    electr: 0-lowe 1-rand  2-diag
   LASPH  =      T    aspherical Exc in radial PAW
   METAGGA=      F    non-selfconsistent MetaGGA calc.

 Electronic Relaxation 1
   ENCUT  = 1000.0 eV  73.50 Ry    8.57 a.u.  90.25 90.25 90.25*2*pi/ulx,y,z
   ENINI  = 1000.0     initial cutoff
   ENAUG  =  644.9 eV  augmentation charge cutoff
   NELM   =     60;   NELMIN=  2; NELMDL= -5     # of ELM steps 
   EDIFF  = 0.1E-06   stopping-criterion for ELM
   LREAL  =      F    real-space projection
   NLSPLINE    = F    spline interpolate recip. space projectors
   LCOMPAT=      F    compatible to vasp.4.4
   GGA_COMPAT  = T    GGA compatible to vasp.4.4-vasp.4.6
   LMAXPAW     = -100 max onsite density
   LMAXMIX     =    2 max onsite mixed and CHGCAR
   VOSKOWN=      0    Vosko Wilk Nusair interpolation
   ROPT   =    0.00000   0.00000
 Ionic relaxation
   EDIFFG = 0.1E-05   stopping-criterion for IOM
   NSW    =      0    number of steps for IOM
   NBLOCK =      1;   KBLOCK =      1    inner block; outer block 
   IBRION =     -1    ionic relax: 0-MD 1-quasi-New 2-CG
   NFREE  =      0    steps in history (QN), initial steepest desc. (CG)
   ISIF   =      2    stress and relaxation
   IWAVPR =     10    prediction:  0-non 1-charg 2-wave 3-comb
   ISYM   =      2    0-nonsym 1-usesym 2-fastsym
   LCORR  =      T    Harris-Foulkes like correction to forces

   POTIM  = 0.5000    time-step for ionic-motion
   TEIN   =    0.0    initial temperature
   TEBEG  =    0.0;   TEEND  =   0.0 temperature during run
   SMASS  =  -3.00    Nose mass-parameter (am)
   estimated Nose-frequenzy (Omega)   =  0.10E-29 period in steps = 0.13E+47 mass=  -0.280E-25a.u.
   SCALEE = 1.0000    scale energy and forces
   NPACO  =    256;   APACO  = 16.0  distance and # of slots for P.C.
   PSTRESS=    0.0 pullay stress

  Mass of Ions in am
   POMASS =  12.01 16.00
  Ionic Valenz
   ZVAL   =   4.00  6.00
  Atomic Wigner-Seitz radii
   RWIGS  =  -1.00 -1.00
  virtual crystal weights 
   VCA    =   1.00  1.00
   NELECT =      32.0000    total number of electrons
   NUPDOWN=      -1.0000    fix difference up-down

 DOS related values:
   EMIN   =  10.00;   EMAX   =-10.00  energy-range for DOS
   EFERMI =   0.00
   ISMEAR =     0;   SIGMA  =   0.01  broadening in eV -4-tet -1-fermi 0-gaus

 Electronic relaxation 2 (details)
   IALGO  =     38    algorithm
   LDIAG  =      T    sub-space diagonalisation (order eigenvalues)
   LSUBROT=      F    optimize rotation matrix (better conditioning)
   TURBO    =      0    0=normal 1=particle mesh
   IRESTART =      0    0=no restart 2=restart with 2 vectors
   NREBOOT  =      0    no. of reboots
   NMIN     =      0    reboot dimension
   EREF     =   0.00    reference energy to select bands
   IMIX   =      4    mixing-type and parameters
     AMIX     =   0.40;   BMIX     =  1.00
     AMIX_MAG =   1.60;   BMIX_MAG =  1.00
     AMIN     =   0.10
     WC   =   100.;   INIMIX=   1;  MIXPRE=   1;  MAXMIX= -45

 Intra band minimization:
   WEIMIN = 0.0000     energy-eigenvalue tresh-hold
   EBREAK =  0.78E-09  absolut break condition
   DEPER  =   0.30     relativ break condition  

   TIME   =   0.40     timestep for ELM

  volume/ion in A,a.u.               =    7145.83     48222.46
  Fermi-wavevector in a.u.,A,eV,Ry     =   0.148499  0.280622  0.300035  0.022052
  Thomas-Fermi vector in A             =   0.821704
 
 Write flags
   LWAVE        =      T    write WAVECAR
   LDOWNSAMPLE  =      F    k-point downsampling of WAVECAR
   LCHARG       =      T    write CHGCAR
   LVTOT        =      F    write LOCPOT, total local potential
   LVHAR        =      F    write LOCPOT, Hartree potential only
   LELF         =      F    write electronic localiz. function (ELF)
   LORBIT       =      0    0 simple, 1 ext, 2 COOP (PROOUT), +10 PAW based schemes


 Dipole corrections
   LMONO  =      F    monopole corrections only (constant potential shift)
   LDIPOL =      F    correct potential (dipole corrections)
   IDIPOL =      4    1-x, 2-y, 3-z, 4-all directions 
   EPSILON=  1.0000000 bulk dielectric constant

 Exchange correlation treatment:
   GGA     =    --    GGA type
   LEXCH   =     8    internal setting for exchange type
   VOSKOWN=      0    Vosko Wilk Nusair interpolation
   LHFCALC =     F    Hartree Fock is set to
   LHFONE  =     F    Hartree Fock one center treatment
   AEXX    =    0.0000 exact exchange contribution

 Linear response parameters
   LEPSILON=     F    determine dielectric tensor
   LRPA    =     F    only Hartree local field effects (RPA)
   LNABLA  =     F    use nabla operator in PAW spheres
   LVEL    =     F    velocity operator in full k-point grid
   LINTERFAST=   F  fast interpolation
   KINTER  =     0    interpolate to denser k-point grid
   CSHIFT  =0.1000    complex shift for real part using Kramers Kronig
   OMEGAMAX=  -1.0    maximum frequency
   DEG_THRESHOLD= 0.2000000E-02 threshold for treating states as degnerate
   RTIME   =   -0.100 relaxation time in fs
  (WPLASMAI=    0.000 imaginary part of plasma frequency in eV, 0.658/RTIME)
   DFIELD  = 0.0000000 0.0000000 0.0000000 field for delta impulse in time
 
 Orbital magnetization related:
   ORBITALMAG=     F  switch on orbital magnetization
   LCHIMAG   =     F  perturbation theory with respect to B field
   DQ        =  0.001000  dq finite difference perturbation B field
   LLRAUG    =     F  two centre corrections for induced B field



--------------------------------------------------------------------------------------------------------


 Static calculation
 charge density and potential will be updated during run
 non-spin polarized calculation
 Variant of blocked Davidson
 Davidson routine will perform the subspace rotation
 perform sub-space diagonalisation
    after iterative eigenvector-optimisation
 modified Broyden-mixing scheme, WC =      100.0
 initial mixing is a Kerker type mixing with AMIX =  0.4000 and BMIX =      1.0000
 Hartree-type preconditioning will be used
 using additional bands            16
 reciprocal scheme for non local part
 use partial core corrections
 calculate Harris-corrections to forces 
   (improved forces if not selfconsistent)
 use gradient corrections 
 use of overlap-Matrix (Vanderbilt PP)
 Gauss-broadening in eV      SIGMA  =   0.01


--------------------------------------------------------------------------------------------------------


  energy-cutoff  :     1000.00
  volume of cell :    42875.00
      direct lattice vectors                 reciprocal lattice vectors
    35.000000000  0.000000000  0.000000000     0.028571429  0.000000000  0.000000000
     0.000000000 35.000000000  0.000000000     0.000000000  0.028571429  0.000000000
     0.000000000  0.000000000 35.000000000     0.000000000  0.000000000  0.028571429

  length of vectors
    35.000000000 35.000000000 35.000000000     0.028571429  0.028571429  0.028571429


 
 k-points in units of 2pi/SCALE and weight: g                                       
   0.00000000  0.00000000  0.00000000       1.000
 
 k-points in reciprocal lattice and weights: g                                       
   0.00000000  0.00000000  0.00000000       1.000
 
 position of ions in fractional coordinates (direct lattice) 
   0.00000000  0.00162817  0.00000000
   0.99995729  0.15791933  0.00021554
   0.00000000  0.03506303  0.00000000
   0.00000000  0.96819331  0.00000000
   0.99952212  0.15766647  0.03364661
   0.00039246  0.15817218  0.96678447
 
 position of ions in cartesian coordinates  (Angst):
   0.00000000  0.05698600  0.00000000
  34.99850504  5.52717643  0.00754377
   0.00000000  1.22720600  0.00000000
   0.00000000 33.88676600  0.00000000
  34.98327409  5.51832652  1.17763118
   0.01373599  5.53602633 33.83745636
 


--------------------------------------------------------------------------------------------------------


 use serial FFT for orbitals x direction half grid
 k-point   1 :   0.0000 0.0000 0.0000  plane waves: 1539209

 maximum and minimum number of plane-waves per node :   1539209  1539209

 maximum number of plane-waves:   1539209
 maximum index in each direction: 
   IXMAX=   90   IYMAX=   90   IZMAX=   90
   IXMIN=    0   IYMIN=  -90   IZMIN=  -90


 serial   3D FFT for wavefunctions
 parallel 3D FFT for charge:
    minimum data exchange during FFTs selected (reduces bandwidth)


 total amount of memory used by VASP MPI-rank0  4007897. kBytes
=======================================================================

   base      :      30000. kBytes
   nonl-proj :     344787. kBytes
   fftplans  :     676185. kBytes
   grid      :    2932288. kBytes
   one-center:          9. kBytes
   wavefun   :      24628. kBytes
 
     INWAV:  cpu time    0.0000: real time    0.0000
 Broyden mixing: mesh for mixing (old mesh)
   NGX =181   NGY =181   NGZ =181
  (NGX  =756   NGY  =756   NGZ  =756)
  gives a total of ****** points

 initial charge density was supplied:
 charge density of overlapping atoms calculated
 number of electron      32.0000000 magnetization 
 keeping initial charge density in first step


--------------------------------------------------------------------------------------------------------


 Maximum index for augmentation-charges           766 (set IRDMAX)


--------------------------------------------------------------------------------------------------------


 First call to EWALD:  gamma=   0.051
 Maximum number of real-space cells 3x 3x 3
 Maximum number of reciprocal cells 3x 3x 3

    FEWALD:  cpu time    0.0010: real time    0.0010


--------------------------------------- Iteration      1(   1)  ---------------------------------------


    POTLOK:  cpu time   12.8640: real time   12.8854
    SETDIJ:  cpu time    0.0408: real time    0.0411
     EDDAV:  cpu time   18.9935: real time   19.0394
       DOS:  cpu time    0.0190: real time    0.0190
    --------------------------------------------
      LOOP:  cpu time   31.9172: real time   31.9849

 eigenvalue-minimisations  :   128
 total energy-change (2. order) : 0.2891810E+03  (-0.6383976E+03)
 number of electron      32.0000000 magnetization 
 augmentation part       32.0000000 magnetization 

 Free energy of the ion-electron system (eV)
  ---------------------------------------------------
  alpha Z        PSCENC =         0.09979497
  Ewald energy   TEWEN  =      1717.47150425
  -Hartree energ DENC   =     -3327.85807009
  -exchange      EXHF   =         0.00000000
  -V(xc)+E(xc)   XCENC  =       135.14851364
  PAW double counting   =      1603.24200032    -1611.57549460
  entropy T*S    EENTRO =        -0.00106648
  eigenvalues    EBANDS =      -251.16289190
  atomic energy  EATOM  =      2023.81668923
  Solvation  Ediel_sol  =         0.00000000
  ---------------------------------------------------
  free energy    TOTEN  =       289.18097934 eV

  energy without entropy =      289.18204583  energy(sigma->0) =      289.18151259


--------------------------------------------------------------------------------------------------------




--------------------------------------- Iteration      1(   2)  ---------------------------------------


     EDDAV:  cpu time   19.0027: real time   19.0414
       DOS:  cpu time    0.0186: real time    0.0186
    --------------------------------------------
      LOOP:  cpu time   19.0214: real time   19.0600

 eigenvalue-minimisations  :   128
 total energy-change (2. order) :-0.2453151E+03  (-0.2452795E+03)
 number of electron      32.0000000 magnetization 
 augmentation part       32.0000000 magnetization 

 Free energy of the ion-electron system (eV)
  ---------------------------------------------------
  alpha Z        PSCENC =         0.09979497
  Ewald energy   TEWEN  =      1717.47150425
  -Hartree energ DENC   =     -3327.85807009
  -exchange      EXHF   =         0.00000000
  -V(xc)+E(xc)   XCENC  =       135.14851364
  PAW double counting   =      1603.24200032    -1611.57549460
  entropy T*S    EENTRO =        -0.00000000
  eigenvalues    EBANDS =      -496.47903430
  atomic energy  EATOM  =      2023.81668923
  Solvation  Ediel_sol  =         0.00000000
  ---------------------------------------------------
  free energy    TOTEN  =        43.86590343 eV

  energy without entropy =       43.86590343  energy(sigma->0) =       43.86590343


--------------------------------------------------------------------------------------------------------




--------------------------------------- Iteration      1(   3)  ---------------------------------------


     EDDAV:  cpu time   11.5580: real time   11.5877
       DOS:  cpu time    0.0236: real time    0.0236
    --------------------------------------------
      LOOP:  cpu time   11.5816: real time   11.6113

 eigenvalue-minimisations  :    64
 total energy-change (2. order) :-0.8758741E+02  (-0.8758741E+02)
 number of electron      32.0000000 magnetization 
 augmentation part       32.0000000 magnetization 

 Free energy of the ion-electron system (eV)
  ---------------------------------------------------
  alpha Z        PSCENC =         0.09979497
  Ewald energy   TEWEN  =      1717.47150425
  -Hartree energ DENC   =     -3327.85807009
  -exchange      EXHF   =         0.00000000
  -V(xc)+E(xc)   XCENC  =       135.14851364
  PAW double counting   =      1603.24200032    -1611.57549460
  entropy T*S    EENTRO =        -0.00000000
  eigenvalues    EBANDS =      -584.06644901
  atomic energy  EATOM  =      2023.81668923
  Solvation  Ediel_sol  =         0.00000000
  ---------------------------------------------------
  free energy    TOTEN  =       -43.72151128 eV

  energy without entropy =      -43.72151128  energy(sigma->0) =      -43.72151128


--------------------------------------------------------------------------------------------------------




--------------------------------------- Iteration      1(   4)  ---------------------------------------


     EDDAV:  cpu time   11.5384: real time   11.5609
       DOS:  cpu time    0.0226: real time    0.0227
    --------------------------------------------
      LOOP:  cpu time   11.5610: real time   11.5835

 eigenvalue-minimisations  :    64
 total energy-change (2. order) :-0.5706214E+01  (-0.5706214E+01)
 number of electron      32.0000000 magnetization 
 augmentation part       32.0000000 magnetization 

 Free energy of the ion-electron system (eV)
  ---------------------------------------------------
  alpha Z        PSCENC =         0.09979497
  Ewald energy   TEWEN  =      1717.47150425
  -Hartree energ DENC   =     -3327.85807009
  -exchange      EXHF   =         0.00000000
  -V(xc)+E(xc)   XCENC  =       135.14851364
  PAW double counting   =      1603.24200032    -1611.57549460
  entropy T*S    EENTRO =        -0.00000000
  eigenvalues    EBANDS =      -589.77266338
  atomic energy  EATOM  =      2023.81668923
  Solvation  Ediel_sol  =         0.00000000
  ---------------------------------------------------
  free energy    TOTEN  =       -49.42772565 eV

  energy without entropy =      -49.42772565  energy(sigma->0) =      -49.42772565


--------------------------------------------------------------------------------------------------------




--------------------------------------- Iteration      1(   5)  ---------------------------------------


     EDDAV:  cpu time   19.0498: real time   19.0922
       DOS:  cpu time    0.0244: real time    0.0244
    CHARGE:  cpu time    5.4457: real time    5.4528
    MIXING:  cpu time    0.2426: real time    0.2430
    --------------------------------------------
      LOOP:  cpu time   24.7625: real time   24.8124

 eigenvalue-minimisations  :   128
 total energy-change (2. order) :-0.8460963E-01  (-0.8460964E-01)
 number of electron      32.0000000 magnetization 
 augmentation part        3.0442111 magnetization 

 Broyden mixing:
  rms(total) = 0.13490E+01    rms(broyden)= 0.13489E+01
  rms(prec ) = 0.13769E+01
  weight for this iteration     100.00

 Free energy of the ion-electron system (eV)
  ---------------------------------------------------
  alpha Z        PSCENC =         0.09979497
  Ewald energy   TEWEN  =      1717.47150425
  -Hartree energ DENC   =     -3327.85807009
  -exchange      EXHF   =         0.00000000
  -V(xc)+E(xc)   XCENC  =       135.14851364
  PAW double counting   =      1603.24200032    -1611.57549460
  entropy T*S    EENTRO =        -0.00000000
  eigenvalues    EBANDS =      -589.85727301
  atomic energy  EATOM  =      2023.81668923
  Solvation  Ediel_sol  =         0.00000000
  ---------------------------------------------------
  free energy    TOTEN  =       -49.51233528 eV

  energy without entropy =      -49.51233528  energy(sigma->0) =      -49.51233528


--------------------------------------------------------------------------------------------------------




--------------------------------------- Iteration      1(   6)  ---------------------------------------


    POTLOK:  cpu time   12.6474: real time   12.6681
    SETDIJ:  cpu time    0.0401: real time    0.0401
     EDDAV:  cpu time   11.5318: real time   11.5642
       DOS:  cpu time    0.0257: real time    0.0257
    CHARGE:  cpu time    5.3306: real time    5.3375
    MIXING:  cpu time    0.2314: real time    0.2347
    --------------------------------------------
      LOOP:  cpu time   29.8070: real time   29.8704

 eigenvalue-minimisations  :    64
 total energy-change (2. order) : 0.3130880E+01  (-0.2013364E+01)
 number of electron      32.0000000 magnetization 
 augmentation part        2.6607582 magnetization 

 Broyden mixing:
  rms(total) = 0.61885E+00    rms(broyden)= 0.61885E+00
  rms(prec ) = 0.62474E+00
  weight for this iteration     100.00

 eigenvalues of (default mixing * dielectric matrix)
  average eigenvalue GAMMA=   1.0008
  1.0008

 Free energy of the ion-electron system (eV)
  ---------------------------------------------------
  alpha Z        PSCENC =         0.09979497
  Ewald energy   TEWEN  =      1717.47150425
  -Hartree energ DENC   =     -3381.07696775
  -exchange      EXHF   =         0.00000000
  -V(xc)+E(xc)   XCENC  =       138.33403507
  PAW double counting   =      2134.43892374    -2143.61418092
  entropy T*S    EENTRO =        -0.00000000
  eigenvalues    EBANDS =      -535.85125412
  atomic energy  EATOM  =      2023.81668923
  Solvation  Ediel_sol  =         0.00000000
  ---------------------------------------------------
  free energy    TOTEN  =       -46.38145552 eV

  energy without entropy =      -46.38145552  energy(sigma->0) =      -46.38145552


--------------------------------------------------------------------------------------------------------




--------------------------------------- Iteration      1(   7)  ---------------------------------------


    POTLOK:  cpu time   12.6666: real time   12.6870
    SETDIJ:  cpu time    0.0402: real time    0.0402
     EDDAV:  cpu time   18.9971: real time   19.0343
       DOS:  cpu time    0.0102: real time    0.0102
    CHARGE:  cpu time    5.3695: real time    5.3786
    MIXING:  cpu time    0.2359: real time    0.2372
    --------------------------------------------
      LOOP:  cpu time   37.3195: real time   37.3874

 eigenvalue-minimisations  :   128
 total energy-change (2. order) : 0.2836377E+00  (-0.7893530E-01)
 number of electron      32.0000000 magnetization 
 augmentation part        2.7023012 magnetization 

 Broyden mixing:
  rms(total) = 0.34542E+00    rms(broyden)= 0.34542E+00
  rms(prec ) = 0.34871E+00
  weight for this iteration     100.00

 eigenvalues of (default mixing * dielectric matrix)
  average eigenvalue GAMMA=   1.6324
  0.9097  2.3552

 Free energy of the ion-electron system (eV)
  ---------------------------------------------------
  alpha Z        PSCENC =         0.09979497
  Ewald energy   TEWEN  =      1717.47150425
  -Hartree energ DENC   =     -3390.29928216
  -exchange      EXHF   =         0.00000000
  -V(xc)+E(xc)   XCENC  =       138.68972200
  PAW double counting   =      2485.30221168    -2494.32750104
  entropy T*S    EENTRO =        -0.00000000
  eigenvalues    EBANDS =      -526.85095679
  atomic energy  EATOM  =      2023.81668923
  Solvation  Ediel_sol  =         0.00000000
  ---------------------------------------------------
  free energy    TOTEN  =       -46.09781785 eV

  energy without entropy =      -46.09781785  energy(sigma->0) =      -46.09781785


--------------------------------------------------------------------------------------------------------




--------------------------------------- Iteration      1(   8)  ---------------------------------------


    POTLOK:  cpu time   12.6688: real time   12.6979
    SETDIJ:  cpu time    0.0400: real time    0.0401
     EDDAV:  cpu time   18.9475: real time   18.9848
       DOS:  cpu time    0.0156: real time    0.0156
    CHARGE:  cpu time    5.3285: real time    5.3369
    MIXING:  cpu time    0.2501: real time    0.2506
    --------------------------------------------
      LOOP:  cpu time   37.2505: real time   37.3259

 eigenvalue-minimisations  :   128
 total energy-change (2. order) : 0.1115712E+00  (-0.4409605E-01)
 number of electron      32.0000000 magnetization 
 augmentation part        2.6834126 magnetization 

 Broyden mixing:
  rms(total) = 0.71102E-01    rms(broyden)= 0.71102E-01
  rms(prec ) = 0.72831E-01
  weight for this iteration     100.00

 eigenvalues of (default mixing * dielectric matrix)
  average eigenvalue GAMMA=   1.4308
  2.4380  0.9271  0.9271

 Free energy of the ion-electron system (eV)
  ---------------------------------------------------
  alpha Z        PSCENC =         0.09979497
  Ewald energy   TEWEN  =      1717.47150425
  -Hartree energ DENC   =     -3407.21753534
  -exchange      EXHF   =         0.00000000
  -V(xc)+E(xc)   XCENC  =       139.53637011
  PAW double counting   =      3065.55231566    -3074.56024598
  entropy T*S    EENTRO =        -0.00000000
  eigenvalues    EBANDS =      -510.68513952
  atomic energy  EATOM  =      2023.81668923
  Solvation  Ediel_sol  =         0.00000000
  ---------------------------------------------------
  free energy    TOTEN  =       -45.98624661 eV

  energy without entropy =      -45.98624661  energy(sigma->0) =      -45.98624661


--------------------------------------------------------------------------------------------------------




--------------------------------------- Iteration      1(   9)  ---------------------------------------


    POTLOK:  cpu time   12.6646: real time   12.6853
    SETDIJ:  cpu time    0.0403: real time    0.0403
     EDDAV:  cpu time   18.9738: real time   19.0173
       DOS:  cpu time    0.0203: real time    0.0203
    CHARGE:  cpu time    5.3740: real time    5.3809
    MIXING:  cpu time    0.2583: real time    0.2588
    --------------------------------------------
      LOOP:  cpu time   37.3312: real time   37.4028

 eigenvalue-minimisations  :   128
 total energy-change (2. order) : 0.6342676E-02  (-0.3276729E-02)
 number of electron      32.0000000 magnetization 
 augmentation part        2.6761421 magnetization 

 Broyden mixing:
  rms(total) = 0.30586E-01    rms(broyden)= 0.30586E-01
  rms(prec ) = 0.31567E-01
  weight for this iteration     100.00

 eigenvalues of (default mixing * dielectric matrix)
  average eigenvalue GAMMA=   1.4653
  2.4437  1.0000  1.2087  1.2087

 Free energy of the ion-electron system (eV)
  ---------------------------------------------------
  alpha Z        PSCENC =         0.09979497
  Ewald energy   TEWEN  =      1717.47150425
  -Hartree energ DENC   =     -3406.75194954
  -exchange      EXHF   =         0.00000000
  -V(xc)+E(xc)   XCENC  =       139.51211778
  PAW double counting   =      3104.73231603    -3113.70848208
  entropy T*S    EENTRO =        -0.00000000
  eigenvalues    EBANDS =      -511.15189458
  atomic energy  EATOM  =      2023.81668923
  Solvation  Ediel_sol  =         0.00000000
  ---------------------------------------------------
  free energy    TOTEN  =       -45.97990393 eV

  energy without entropy =      -45.97990393  energy(sigma->0) =      -45.97990393


--------------------------------------------------------------------------------------------------------




--------------------------------------- Iteration      1(  10)  ---------------------------------------


    POTLOK:  cpu time   12.6776: real time   12.6984
    SETDIJ:  cpu time    0.0401: real time    0.0401
     EDDAV:  cpu time   19.0492: real time   19.0875
       DOS:  cpu time    0.0239: real time    0.0239
    CHARGE:  cpu time    5.3412: real time    5.3522
    MIXING:  cpu time    0.2663: real time    0.2667
    --------------------------------------------
      LOOP:  cpu time   37.3983: real time   37.4688

 eigenvalue-minimisations  :   128
 total energy-change (2. order) :-0.2689778E-02  (-0.4997613E-03)
 number of electron      32.0000000 magnetization 
 augmentation part        2.6800474 magnetization 

 Broyden mixing:
  rms(total) = 0.86332E-02    rms(broyden)= 0.86332E-02
  rms(prec ) = 0.98824E-02
  weight for this iteration     100.00

 eigenvalues of (default mixing * dielectric matrix)
  average eigenvalue GAMMA=   1.4713
  2.3797  0.9117  0.9117  1.5767  1.5767

 Free energy of the ion-electron system (eV)
  ---------------------------------------------------
  alpha Z        PSCENC =         0.09979497
  Ewald energy   TEWEN  =      1717.47150425
  -Hartree energ DENC   =     -3406.31170165
  -exchange      EXHF   =         0.00000000
  -V(xc)+E(xc)   XCENC  =       139.46516427
  PAW double counting   =      3114.33883512    -3123.27502547
  entropy T*S    EENTRO =        -0.00000000
  eigenvalues    EBANDS =      -511.58785443
  atomic energy  EATOM  =      2023.81668923
  Solvation  Ediel_sol  =         0.00000000
  ---------------------------------------------------
  free energy    TOTEN  =       -45.98259371 eV

  energy without entropy =      -45.98259371  energy(sigma->0) =      -45.98259371


--------------------------------------------------------------------------------------------------------




--------------------------------------- Iteration      1(  11)  ---------------------------------------


    POTLOK:  cpu time   12.7006: real time   12.7263
    SETDIJ:  cpu time    0.0420: real time    0.0420
     EDDAV:  cpu time   11.5792: real time   11.6016
       DOS:  cpu time    0.0214: real time    0.0214
    CHARGE:  cpu time    5.2781: real time    5.2905
    MIXING:  cpu time    0.2758: real time    0.2763
    --------------------------------------------
      LOOP:  cpu time   29.8972: real time   29.9581

 eigenvalue-minimisations  :    64
 total energy-change (2. order) :-0.3212820E-02  (-0.4272837E-04)
 number of electron      32.0000000 magnetization 
 augmentation part        2.6793982 magnetization 

 Broyden mixing:
  rms(total) = 0.43094E-02    rms(broyden)= 0.43093E-02
  rms(prec ) = 0.55318E-02
  weight for this iteration     100.00

 eigenvalues of (default mixing * dielectric matrix)
  average eigenvalue GAMMA=   1.6095
  2.9035  2.4637  1.4250  1.0454  0.9098  0.9098

 Free energy of the ion-electron system (eV)
  ---------------------------------------------------
  alpha Z        PSCENC =         0.09979497
  Ewald energy   TEWEN  =      1717.47150425
  -Hartree energ DENC   =     -3406.80595985
  -exchange      EXHF   =         0.00000000
  -V(xc)+E(xc)   XCENC  =       139.47261425
  PAW double counting   =      3112.73183463    -3121.65911694
  entropy T*S    EENTRO =        -0.00000000
  eigenvalues    EBANDS =      -511.11316708
  atomic energy  EATOM  =      2023.81668923
  Solvation  Ediel_sol  =         0.00000000
  ---------------------------------------------------
  free energy    TOTEN  =       -45.98580653 eV

  energy without entropy =      -45.98580653  energy(sigma->0) =      -45.98580653


--------------------------------------------------------------------------------------------------------




--------------------------------------- Iteration      1(  12)  ---------------------------------------


    POTLOK:  cpu time   12.6534: real time   12.6747
    SETDIJ:  cpu time    0.0421: real time    0.0421
     EDDAV:  cpu time   15.2809: real time   15.3109
       DOS:  cpu time    0.0129: real time    0.0129
    CHARGE:  cpu time    5.3662: real time    5.3729
    MIXING:  cpu time    0.2801: real time    0.2836
    --------------------------------------------
      LOOP:  cpu time   33.6356: real time   33.6971

 eigenvalue-minimisations  :    96
 total energy-change (2. order) :-0.3922399E-02  (-0.5591999E-04)
 number of electron      32.0000000 magnetization 
 augmentation part        2.6787840 magnetization 

 Broyden mixing:
  rms(total) = 0.26550E-02    rms(broyden)= 0.26550E-02
  rms(prec ) = 0.33553E-02
  weight for this iteration     100.00

 eigenvalues of (default mixing * dielectric matrix)
  average eigenvalue GAMMA=   1.6739
  3.3535  2.4326  1.5957  1.5957  0.9308  0.9308  0.8781

 Free energy of the ion-electron system (eV)
  ---------------------------------------------------
  alpha Z        PSCENC =         0.09979497
  Ewald energy   TEWEN  =      1717.47150425
  -Hartree energ DENC   =     -3407.57748994
  -exchange      EXHF   =         0.00000000
  -V(xc)+E(xc)   XCENC  =       139.48693571
  PAW double counting   =      3113.90036111    -3122.82057786
  entropy T*S    EENTRO =        -0.00000000
  eigenvalues    EBANDS =      -510.36694640
  atomic energy  EATOM  =      2023.81668923
  Solvation  Ediel_sol  =         0.00000000
  ---------------------------------------------------
  free energy    TOTEN  =       -45.98972893 eV

  energy without entropy =      -45.98972893  energy(sigma->0) =      -45.98972893


--------------------------------------------------------------------------------------------------------




--------------------------------------- Iteration      1(  13)  ---------------------------------------


    POTLOK:  cpu time   12.7141: real time   12.7418
    SETDIJ:  cpu time    0.0401: real time    0.0401
     EDDAV:  cpu time   15.2583: real time   15.2979
       DOS:  cpu time    0.0281: real time    0.0281
    CHARGE:  cpu time    5.3027: real time    5.3095
    MIXING:  cpu time    0.2876: real time    0.2881
    --------------------------------------------
      LOOP:  cpu time   33.6309: real time   33.7056

 eigenvalue-minimisations  :    96
 total energy-change (2. order) :-0.2672039E-02  (-0.2650619E-04)
 number of electron      32.0000000 magnetization 
 augmentation part        2.6789875 magnetization 

 Broyden mixing:
  rms(total) = 0.12295E-02    rms(broyden)= 0.12295E-02
  rms(prec ) = 0.17639E-02
  weight for this iteration     100.00

 eigenvalues of (default mixing * dielectric matrix)
  average eigenvalue GAMMA=   1.8217
  4.3842  2.5401  2.4187  1.5107  1.0186  0.9064  0.9064  0.8887

 Free energy of the ion-electron system (eV)
  ---------------------------------------------------
  alpha Z        PSCENC =         0.09979497
  Ewald energy   TEWEN  =      1717.47150425
  -Hartree energ DENC   =     -3407.99336135
  -exchange      EXHF   =         0.00000000
  -V(xc)+E(xc)   XCENC  =       139.49085719
  PAW double counting   =      3113.12681065    -3122.04904272
  entropy T*S    EENTRO =        -0.00000000
  eigenvalues    EBANDS =      -509.95565320
  atomic energy  EATOM  =      2023.81668923
  Solvation  Ediel_sol  =         0.00000000
  ---------------------------------------------------
  free energy    TOTEN  =       -45.99240097 eV

  energy without entropy =      -45.99240097  energy(sigma->0) =      -45.99240097


--------------------------------------------------------------------------------------------------------




--------------------------------------- Iteration      1(  14)  ---------------------------------------


    POTLOK:  cpu time   12.6583: real time   12.6792
    SETDIJ:  cpu time    0.0402: real time    0.0403
     EDDAV:  cpu time   15.2294: real time   15.2643
       DOS:  cpu time    0.0190: real time    0.0190
    CHARGE:  cpu time    5.3896: real time    5.4051
    MIXING:  cpu time    0.3010: real time    0.3016
    --------------------------------------------
      LOOP:  cpu time   33.6375: real time   33.7094

 eigenvalue-minimisations  :    96
 total energy-change (2. order) :-0.1784249E-02  (-0.2041010E-04)
 number of electron      32.0000000 magnetization 
 augmentation part        2.6789069 magnetization 

 Broyden mixing:
  rms(total) = 0.93825E-03    rms(broyden)= 0.93825E-03
  rms(prec ) = 0.11688E-02
  weight for this iteration     100.00

 eigenvalues of (default mixing * dielectric matrix)
  average eigenvalue GAMMA=   1.8765
  5.2303  2.7592  2.4090  1.4616  1.4616  0.9232  0.9232  0.8601  0.8601

 Free energy of the ion-electron system (eV)
  ---------------------------------------------------
  alpha Z        PSCENC =         0.09979497
  Ewald energy   TEWEN  =      1717.47150425
  -Hartree energ DENC   =     -3408.29248260
  -exchange      EXHF   =         0.00000000
  -V(xc)+E(xc)   XCENC  =       139.49236521
  PAW double counting   =      3112.29960927    -3121.22418231
  entropy T*S    EENTRO =        -0.00000000
  eigenvalues    EBANDS =      -509.65748324
  atomic energy  EATOM  =      2023.81668923
  Solvation  Ediel_sol  =         0.00000000
  ---------------------------------------------------
  free energy    TOTEN  =       -45.99418522 eV

  energy without entropy =      -45.99418522  energy(sigma->0) =      -45.99418522


--------------------------------------------------------------------------------------------------------




--------------------------------------- Iteration      1(  15)  ---------------------------------------


    POTLOK:  cpu time   12.6933: real time   12.7137
    SETDIJ:  cpu time    0.0401: real time    0.0402
     EDDAV:  cpu time   19.0223: real time   19.0690
       DOS:  cpu time    0.0172: real time    0.0172
    CHARGE:  cpu time    5.3192: real time    5.3262
    MIXING:  cpu time    0.3099: real time    0.3105
    --------------------------------------------
      LOOP:  cpu time   37.4021: real time   37.4767

 eigenvalue-minimisations  :   128
 total energy-change (2. order) :-0.7766808E-03  (-0.3220700E-05)
 number of electron      32.0000000 magnetization 
 augmentation part        2.6788052 magnetization 

 Broyden mixing:
  rms(total) = 0.58302E-03    rms(broyden)= 0.58302E-03
  rms(prec ) = 0.74135E-03
  weight for this iteration     100.00

 eigenvalues of (default mixing * dielectric matrix)
  average eigenvalue GAMMA=   2.0699
  6.4304  3.3614  2.3808  2.3481  1.5411  1.0538  0.9329  0.9329  0.9006  0.8175

 Free energy of the ion-electron system (eV)
  ---------------------------------------------------
  alpha Z        PSCENC =         0.09979497
  Ewald energy   TEWEN  =      1717.47150425
  -Hartree energ DENC   =     -3408.38242232
  -exchange      EXHF   =         0.00000000
  -V(xc)+E(xc)   XCENC  =       139.49184485
  PAW double counting   =      3112.36997915    -3121.29402590
  entropy T*S    EENTRO =        -0.00000000
  eigenvalues    EBANDS =      -509.56832612
  atomic energy  EATOM  =      2023.81668923
  Solvation  Ediel_sol  =         0.00000000
  ---------------------------------------------------
  free energy    TOTEN  =       -45.99496190 eV

  energy without entropy =      -45.99496190  energy(sigma->0) =      -45.99496190


--------------------------------------------------------------------------------------------------------




--------------------------------------- Iteration      1(  16)  ---------------------------------------


    POTLOK:  cpu time   12.6804: real time   12.7006
    SETDIJ:  cpu time    0.0400: real time    0.0401
     EDDAV:  cpu time   11.5462: real time   11.5742
       DOS:  cpu time    0.0076: real time    0.0076
    CHARGE:  cpu time    5.3584: real time    5.3650
    MIXING:  cpu time    0.3459: real time    0.3465
    --------------------------------------------
      LOOP:  cpu time   29.9785: real time   30.0340

 eigenvalue-minimisations  :    64
 total energy-change (2. order) :-0.8359588E-03  (-0.4139527E-05)
 number of electron      32.0000000 magnetization 
 augmentation part        2.6787870 magnetization 

 Broyden mixing:
  rms(total) = 0.29086E-03    rms(broyden)= 0.29086E-03
  rms(prec ) = 0.36360E-03
  weight for this iteration     100.00

 eigenvalues of (default mixing * dielectric matrix)
  average eigenvalue GAMMA=   2.0597
  6.6763  3.5967  2.5135  2.3161  1.5840  1.3496  0.9452  0.9452  0.9533  0.9533
  0.8235

 Free energy of the ion-electron system (eV)
  ---------------------------------------------------
  alpha Z        PSCENC =         0.09979497
  Ewald energy   TEWEN  =      1717.47150425
  -Hartree energ DENC   =     -3408.43253678
  -exchange      EXHF   =         0.00000000
  -V(xc)+E(xc)   XCENC  =       139.49006340
  PAW double counting   =      3112.80282953    -3121.72524703
  entropy T*S    EENTRO =        -0.00000000
  eigenvalues    EBANDS =      -509.51889543
  atomic energy  EATOM  =      2023.81668923
  Solvation  Ediel_sol  =         0.00000000
  ---------------------------------------------------
  free energy    TOTEN  =       -45.99579786 eV

  energy without entropy =      -45.99579786  energy(sigma->0) =      -45.99579786


--------------------------------------------------------------------------------------------------------




--------------------------------------- Iteration      1(  17)  ---------------------------------------


    POTLOK:  cpu time   12.6737: real time   12.6944
    SETDIJ:  cpu time    0.0403: real time    0.0403
     EDDAV:  cpu time   19.0295: real time   19.0694
       DOS:  cpu time    0.0077: real time    0.0077
    CHARGE:  cpu time    5.3135: real time    5.3219
    MIXING:  cpu time    0.3448: real time    0.3454
    --------------------------------------------
      LOOP:  cpu time   37.4095: real time   37.4791

 eigenvalue-minimisations  :   128
 total energy-change (2. order) :-0.2442390E-03  (-0.7137033E-06)
 number of electron      32.0000000 magnetization 
 augmentation part        2.6787518 magnetization 

 Broyden mixing:
  rms(total) = 0.22209E-03    rms(broyden)= 0.22209E-03
  rms(prec ) = 0.26502E-03
  weight for this iteration     100.00

 eigenvalues of (default mixing * dielectric matrix)
  average eigenvalue GAMMA=   2.1753
  7.5986  4.2049  2.8187  2.4158  2.1615  1.5708  0.9423  0.9423  0.9827  0.8942
  0.7862  0.7862

 Free energy of the ion-electron system (eV)
  ---------------------------------------------------
  alpha Z        PSCENC =         0.09979497
  Ewald energy   TEWEN  =      1717.47150425
  -Hartree energ DENC   =     -3408.45354145
  -exchange      EXHF   =         0.00000000
  -V(xc)+E(xc)   XCENC  =       139.49021555
  PAW double counting   =      3112.80276123    -3121.72537556
  entropy T*S    EENTRO =        -0.00000000
  eigenvalues    EBANDS =      -509.49809032
  atomic energy  EATOM  =      2023.81668923
  Solvation  Ediel_sol  =         0.00000000
  ---------------------------------------------------
  free energy    TOTEN  =       -45.99604210 eV

  energy without entropy =      -45.99604210  energy(sigma->0) =      -45.99604210


--------------------------------------------------------------------------------------------------------




--------------------------------------- Iteration      1(  18)  ---------------------------------------


    POTLOK:  cpu time   12.6195: real time   12.6507
    SETDIJ:  cpu time    0.0401: real time    0.0401
     EDDAV:  cpu time   19.0492: real time   19.0996
       DOS:  cpu time    0.0227: real time    0.0227
    CHARGE:  cpu time    5.3676: real time    5.3745
    MIXING:  cpu time    0.3427: real time    0.3434
    --------------------------------------------
      LOOP:  cpu time   37.4419: real time   37.5311

 eigenvalue-minimisations  :   128
 total energy-change (2. order) :-0.1905348E-03  (-0.4410352E-06)
 number of electron      32.0000000 magnetization 
 augmentation part        2.6787707 magnetization 

 Broyden mixing:
  rms(total) = 0.84337E-04    rms(broyden)= 0.84337E-04
  rms(prec ) = 0.11116E-03
  weight for this iteration     100.00

 eigenvalues of (default mixing * dielectric matrix)
  average eigenvalue GAMMA=   2.2000
  8.1078  4.6408  3.0149  2.4317  2.2409  1.5494  1.1869  0.9536  0.9536  0.8891
  0.8891  0.8556  0.8860

 Free energy of the ion-electron system (eV)
  ---------------------------------------------------
  alpha Z        PSCENC =         0.09979497
  Ewald energy   TEWEN  =      1717.47150425
  -Hartree energ DENC   =     -3408.46160230
  -exchange      EXHF   =         0.00000000
  -V(xc)+E(xc)   XCENC  =       139.48969973
  PAW double counting   =      3112.64835582    -3121.57121569
  entropy T*S    EENTRO =        -0.00000000
  eigenvalues    EBANDS =      -509.48945865
  atomic energy  EATOM  =      2023.81668923
  Solvation  Ediel_sol  =         0.00000000
  ---------------------------------------------------
  free energy    TOTEN  =       -45.99623263 eV

  energy without entropy =      -45.99623263  energy(sigma->0) =      -45.99623263


--------------------------------------------------------------------------------------------------------




--------------------------------------- Iteration      1(  19)  ---------------------------------------


    POTLOK:  cpu time   12.7204: real time   12.7412
    SETDIJ:  cpu time    0.0402: real time    0.0402
     EDDAV:  cpu time   11.5404: real time   11.5738
       DOS:  cpu time    0.0193: real time    0.0193
    CHARGE:  cpu time    5.2965: real time    5.3036
    MIXING:  cpu time    0.3973: real time    0.3981
    --------------------------------------------
      LOOP:  cpu time   30.0140: real time   30.0762

 eigenvalue-minimisations  :    64
 total energy-change (2. order) :-0.6347093E-04  (-0.6050778E-07)
 number of electron      32.0000000 magnetization 
 augmentation part        2.6787757 magnetization 

 Broyden mixing:
  rms(total) = 0.55152E-04    rms(broyden)= 0.55152E-04
  rms(prec ) = 0.71794E-04
  weight for this iteration     100.00

 eigenvalues of (default mixing * dielectric matrix)
  average eigenvalue GAMMA=   2.2176
  8.4896  4.9896  3.2073  2.4564  2.3057  1.7587  1.6029  0.9528  0.9528  0.9508
  0.8567  0.8567  0.8790  0.7879

 Free energy of the ion-electron system (eV)
  ---------------------------------------------------
  alpha Z        PSCENC =         0.09979497
  Ewald energy   TEWEN  =      1717.47150425
  -Hartree energ DENC   =     -3408.46540101
  -exchange      EXHF   =         0.00000000
  -V(xc)+E(xc)   XCENC  =       139.48961389
  PAW double counting   =      3112.61400339    -3121.53692058
  entropy T*S    EENTRO =        -0.00000000
  eigenvalues    EBANDS =      -509.48558025
  atomic energy  EATOM  =      2023.81668923
  Solvation  Ediel_sol  =         0.00000000
  ---------------------------------------------------
  free energy    TOTEN  =       -45.99629610 eV

  energy without entropy =      -45.99629610  energy(sigma->0) =      -45.99629610


--------------------------------------------------------------------------------------------------------




--------------------------------------- Iteration      1(  20)  ---------------------------------------


    POTLOK:  cpu time   12.6048: real time   12.6255
    SETDIJ:  cpu time    0.0401: real time    0.0401
     EDDAV:  cpu time   19.0041: real time   19.0423
       DOS:  cpu time    0.0211: real time    0.0212
    CHARGE:  cpu time    5.3955: real time    5.4042
    MIXING:  cpu time    0.3585: real time    0.3592
    --------------------------------------------
      LOOP:  cpu time   37.4241: real time   37.4924

 eigenvalue-minimisations  :   128
 total energy-change (2. order) :-0.3992399E-04  (-0.3096291E-07)
 number of electron      32.0000000 magnetization 
 augmentation part        2.6787761 magnetization 

 Broyden mixing:
  rms(total) = 0.39222E-04    rms(broyden)= 0.39222E-04
  rms(prec ) = 0.48165E-04
  weight for this iteration     100.00

 eigenvalues of (default mixing * dielectric matrix)
  average eigenvalue GAMMA=   2.3018
  8.9810  5.5743  3.6124  2.7572  2.4097  2.2012  1.5540  1.1251  0.9631  0.9631
  0.9284  0.9284  0.9353  0.8344  0.7592

 Free energy of the ion-electron system (eV)
  ---------------------------------------------------
  alpha Z        PSCENC =         0.09979497
  Ewald energy   TEWEN  =      1717.47150425
  -Hartree energ DENC   =     -3408.46690506
  -exchange      EXHF   =         0.00000000
  -V(xc)+E(xc)   XCENC  =       139.48953766
  PAW double counting   =      3112.61401280    -3121.53691292
  entropy T*S    EENTRO =        -0.00000000
  eigenvalues    EBANDS =      -509.48405696
  atomic energy  EATOM  =      2023.81668923
  Solvation  Ediel_sol  =         0.00000000
  ---------------------------------------------------
  free energy    TOTEN  =       -45.99633603 eV

  energy without entropy =      -45.99633603  energy(sigma->0) =      -45.99633603


--------------------------------------------------------------------------------------------------------




--------------------------------------- Iteration      1(  21)  ---------------------------------------


    POTLOK:  cpu time   12.6624: real time   12.6837
    SETDIJ:  cpu time    0.0401: real time    0.0401
     EDDAV:  cpu time   11.5425: real time   11.5696
       DOS:  cpu time    0.0149: real time    0.0149
    CHARGE:  cpu time    5.3271: real time    5.3357
    MIXING:  cpu time    0.3891: real time    0.3898
    --------------------------------------------
      LOOP:  cpu time   29.9761: real time   30.0338

 eigenvalue-minimisations  :    64
 total energy-change (2. order) :-0.2702447E-04  (-0.2214284E-07)
 number of electron      32.0000000 magnetization 
 augmentation part        2.6787751 magnetization 

 Broyden mixing:
  rms(total) = 0.20497E-04    rms(broyden)= 0.20497E-04
  rms(prec ) = 0.24759E-04
  weight for this iteration     100.00

 eigenvalues of (default mixing * dielectric matrix)
  average eigenvalue GAMMA=   2.3305
  9.1916  5.9332  3.9395  2.9380  2.4500  2.2002  1.7751  1.5689  0.9945  0.9322
  0.9322  0.9428  0.9428  0.9188  0.8139  0.8139

 Free energy of the ion-electron system (eV)
  ---------------------------------------------------
  alpha Z        PSCENC =         0.09979497
  Ewald energy   TEWEN  =      1717.47150425
  -Hartree energ DENC   =     -3408.46718261
  -exchange      EXHF   =         0.00000000
  -V(xc)+E(xc)   XCENC  =       139.48945529
  PAW double counting   =      3112.63365811    -3121.55650672
  entropy T*S    EENTRO =        -0.00000000
  eigenvalues    EBANDS =      -509.48377557
  atomic energy  EATOM  =      2023.81668923
  Solvation  Ediel_sol  =         0.00000000
  ---------------------------------------------------
  free energy    TOTEN  =       -45.99636305 eV

  energy without entropy =      -45.99636305  energy(sigma->0) =      -45.99636305


--------------------------------------------------------------------------------------------------------




--------------------------------------- Iteration      1(  22)  ---------------------------------------


    POTLOK:  cpu time   12.5974: real time   12.6188
    SETDIJ:  cpu time    0.0401: real time    0.0401
     EDDAV:  cpu time   19.0073: real time   19.0540
       DOS:  cpu time    0.0160: real time    0.0160
    CHARGE:  cpu time    5.3880: real time    5.3964
    MIXING:  cpu time    0.3936: real time    0.3944
    --------------------------------------------
      LOOP:  cpu time   37.4425: real time   37.5197

 eigenvalue-minimisations  :   128
 total energy-change (2. order) :-0.1009917E-04  (-0.1055324E-07)
 number of electron      32.0000000 magnetization 
 augmentation part        2.6787732 magnetization 

 Broyden mixing:
  rms(total) = 0.10138E-04    rms(broyden)= 0.10138E-04
  rms(prec ) = 0.12637E-04
  weight for this iteration     100.00

 eigenvalues of (default mixing * dielectric matrix)
  average eigenvalue GAMMA=   2.3337
  9.2866  6.2083  4.1639  3.1009  2.5026  2.3315  2.1155  1.5608  1.0461  0.9715
  0.9715  0.9465  0.9465  0.9341  0.9341  0.8263  0.8263

 Free energy of the ion-electron system (eV)
  ---------------------------------------------------
  alpha Z        PSCENC =         0.09979497
  Ewald energy   TEWEN  =      1717.47150425
  -Hartree energ DENC   =     -3408.46852505
  -exchange      EXHF   =         0.00000000
  -V(xc)+E(xc)   XCENC  =       139.48949348
  PAW double counting   =      3112.64304111    -3121.56588681
  entropy T*S    EENTRO =        -0.00000000
  eigenvalues    EBANDS =      -509.48248433
  atomic energy  EATOM  =      2023.81668923
  Solvation  Ediel_sol  =         0.00000000
  ---------------------------------------------------
  free energy    TOTEN  =       -45.99637315 eV

  energy without entropy =      -45.99637315  energy(sigma->0) =      -45.99637315


--------------------------------------------------------------------------------------------------------




--------------------------------------- Iteration      1(  23)  ---------------------------------------


    POTLOK:  cpu time   12.6359: real time   12.6583
    SETDIJ:  cpu time    0.0400: real time    0.0400
     EDDAV:  cpu time   11.5173: real time   11.5444
       DOS:  cpu time    0.0108: real time    0.0108
    CHARGE:  cpu time    5.3262: real time    5.3343
    MIXING:  cpu time    0.4232: real time    0.4241
    --------------------------------------------
      LOOP:  cpu time   29.9534: real time   30.0120

 eigenvalue-minimisations  :    64
 total energy-change (2. order) :-0.4434245E-05  (-0.7191957E-08)
 number of electron      32.0000000 magnetization 
 augmentation part        2.6787722 magnetization 

 Broyden mixing:
  rms(total) = 0.86878E-05    rms(broyden)= 0.86878E-05
  rms(prec ) = 0.98050E-05
  weight for this iteration     100.00

 eigenvalues of (default mixing * dielectric matrix)
  average eigenvalue GAMMA=   2.3711
  9.5270  6.5192  4.6365  3.2377  2.6486  2.4736  2.1804  1.6624  1.5725  0.9359
  0.9359  1.0029  0.9397  0.9397  0.9151  0.9151  0.8188  0.8188

 Free energy of the ion-electron system (eV)
  ---------------------------------------------------
  alpha Z        PSCENC =         0.09979497
  Ewald energy   TEWEN  =      1717.47150425
  -Hartree energ DENC   =     -3408.46910161
  -exchange      EXHF   =         0.00000000
  -V(xc)+E(xc)   XCENC  =       139.48951495
  PAW double counting   =      3112.64279696    -3121.56564810
  entropy T*S    EENTRO =        -0.00000000
  eigenvalues    EBANDS =      -509.48192824
  atomic energy  EATOM  =      2023.81668923
  Solvation  Ediel_sol  =         0.00000000
  ---------------------------------------------------
  free energy    TOTEN  =       -45.99637759 eV

  energy without entropy =      -45.99637759  energy(sigma->0) =      -45.99637759


--------------------------------------------------------------------------------------------------------




--------------------------------------- Iteration      1(  24)  ---------------------------------------


    POTLOK:  cpu time   12.5598: real time   12.5808
    SETDIJ:  cpu time    0.0401: real time    0.0401
     EDDAV:  cpu time   18.9851: real time   19.0296
       DOS:  cpu time    0.0111: real time    0.0111
    CHARGE:  cpu time    5.3923: real time    5.4015
    MIXING:  cpu time    0.4412: real time    0.4423
    --------------------------------------------
      LOOP:  cpu time   37.4296: real time   37.5054

 eigenvalue-minimisations  :   128
 total energy-change (2. order) :-0.2264755E-05  (-0.6074721E-08)
 number of electron      32.0000000 magnetization 
 augmentation part        2.6787732 magnetization 

 Broyden mixing:
  rms(total) = 0.31369E-05    rms(broyden)= 0.31369E-05
  rms(prec ) = 0.40215E-05
  weight for this iteration     100.00

 eigenvalues of (default mixing * dielectric matrix)
  average eigenvalue GAMMA=   2.3606
  9.6335  6.7390  4.8411  3.4594  2.7909  2.4409  2.1458  1.7921  1.5419  0.9555
  0.9555  1.0615  1.0079  1.0079  0.9358  0.9358  0.9651  0.8209  0.8209

 Free energy of the ion-electron system (eV)
  ---------------------------------------------------
  alpha Z        PSCENC =         0.09979497
  Ewald energy   TEWEN  =      1717.47150425
  -Hartree energ DENC   =     -3408.46917872
  -exchange      EXHF   =         0.00000000
  -V(xc)+E(xc)   XCENC  =       139.48950945
  PAW double counting   =      3112.63836986    -3121.56122621
  entropy T*S    EENTRO =        -0.00000000
  eigenvalues    EBANDS =      -509.48184268
  atomic energy  EATOM  =      2023.81668923
  Solvation  Ediel_sol  =         0.00000000
  ---------------------------------------------------
  free energy    TOTEN  =       -45.99637985 eV

  energy without entropy =      -45.99637985  energy(sigma->0) =      -45.99637985


--------------------------------------------------------------------------------------------------------




--------------------------------------- Iteration      1(  25)  ---------------------------------------


    POTLOK:  cpu time   12.6288: real time   12.6514
    SETDIJ:  cpu time    0.0400: real time    0.0400
     EDDAV:  cpu time   11.5776: real time   11.6005
       DOS:  cpu time    0.0102: real time    0.0102
    CHARGE:  cpu time    5.3167: real time    5.3248
    MIXING:  cpu time    0.4654: real time    0.4662
    --------------------------------------------
      LOOP:  cpu time   30.0386: real time   30.0932

 eigenvalue-minimisations  :    64
 total energy-change (2. order) :-0.9383348E-06  (-0.5418705E-08)
 number of electron      32.0000000 magnetization 
 augmentation part        2.6787734 magnetization 

 Broyden mixing:
  rms(total) = 0.19191E-05    rms(broyden)= 0.19191E-05
  rms(prec ) = 0.25120E-05
  weight for this iteration     100.00

 eigenvalues of (default mixing * dielectric matrix)
  average eigenvalue GAMMA=   2.4194
  9.7278  6.9963  5.2291  3.8054  2.9931  2.4913  2.4913  2.1187  1.7666  1.5511
  0.9398  0.9398  1.0152  0.9507  0.9507  0.9285  0.9285  0.9185  0.8232  0.8232

 Free energy of the ion-electron system (eV)
  ---------------------------------------------------
  alpha Z        PSCENC =         0.09979497
  Ewald energy   TEWEN  =      1717.47150425
  -Hartree energ DENC   =     -3408.46895870
  -exchange      EXHF   =         0.00000000
  -V(xc)+E(xc)   XCENC  =       139.48949933
  PAW double counting   =      3112.63876864    -3121.56162381
  entropy T*S    EENTRO =        -0.00000000
  eigenvalues    EBANDS =      -509.48205471
  atomic energy  EATOM  =      2023.81668923
  Solvation  Ediel_sol  =         0.00000000
  ---------------------------------------------------
  free energy    TOTEN  =       -45.99638079 eV

  energy without entropy =      -45.99638079  energy(sigma->0) =      -45.99638079


--------------------------------------------------------------------------------------------------------




--------------------------------------- Iteration      1(  26)  ---------------------------------------


    POTLOK:  cpu time   12.5782: real time   12.5991
    SETDIJ:  cpu time    0.0401: real time    0.0401
     EDDAV:  cpu time   18.9336: real time   18.9725
       DOS:  cpu time    0.0177: real time    0.0177
    CHARGE:  cpu time    5.3735: real time    5.3817
    MIXING:  cpu time    0.4844: real time    0.4852
    --------------------------------------------
      LOOP:  cpu time   37.4274: real time   37.4963

 eigenvalue-minimisations  :   128
 total energy-change (2. order) :-0.8026113E-06  (-0.4825061E-08)
 number of electron      32.0000000 magnetization 
 augmentation part        2.6787737 magnetization 

 Broyden mixing:
  rms(total) = 0.11871E-05    rms(broyden)= 0.11871E-05
  rms(prec ) = 0.14087E-05
  weight for this iteration     100.00

 eigenvalues of (default mixing * dielectric matrix)
  average eigenvalue GAMMA=   2.4355
  9.7462  7.3023  5.4873  4.1880  3.1711  2.6640  2.4545  2.1375  1.6837  1.5333
  1.5333  0.9419  0.9419  0.9415  0.9415  0.9769  0.9769  0.9384  0.9384  0.8233
  0.8233

 Free energy of the ion-electron system (eV)
  ---------------------------------------------------
  alpha Z        PSCENC =         0.09979497
  Ewald energy   TEWEN  =      1717.47150425
  -Hartree energ DENC   =     -3408.46884671
  -exchange      EXHF   =         0.00000000
  -V(xc)+E(xc)   XCENC  =       139.48949385
  PAW double counting   =      3112.63773227    -3121.56058892
  entropy T*S    EENTRO =        -0.00000000
  eigenvalues    EBANDS =      -509.48216052
  atomic energy  EATOM  =      2023.81668923
  Solvation  Ediel_sol  =         0.00000000
  ---------------------------------------------------
  free energy    TOTEN  =       -45.99638159 eV

  energy without entropy =      -45.99638159  energy(sigma->0) =      -45.99638159


--------------------------------------------------------------------------------------------------------




--------------------------------------- Iteration      1(  27)  ---------------------------------------


    POTLOK:  cpu time   12.6596: real time   12.6821
    SETDIJ:  cpu time    0.0402: real time    0.0402
     EDDAV:  cpu time   19.0186: real time   19.0560
       DOS:  cpu time    0.0244: real time    0.0245
    CHARGE:  cpu time    5.3529: real time    5.3612
    MIXING:  cpu time    0.4757: real time    0.4766
    --------------------------------------------
      LOOP:  cpu time   37.5714: real time   37.6406

 eigenvalue-minimisations  :   128
 total energy-change (2. order) :-0.2133274E-06  (-0.4294908E-08)
 number of electron      32.0000000 magnetization 
 augmentation part        2.6787735 magnetization 

 Broyden mixing:
  rms(total) = 0.65011E-06    rms(broyden)= 0.65011E-06
  rms(prec ) = 0.78453E-06
  weight for this iteration     100.00

 eigenvalues of (default mixing * dielectric matrix)
  average eigenvalue GAMMA=   2.4772
  9.7823  7.5466  5.8108  4.4838  3.3766  2.8717  2.4466  2.4466  2.0814  1.7912
  1.5425  0.9476  0.9476  1.0694  0.9417  0.9417  0.9678  0.9678  0.9444  0.9444
  0.8229  0.8229

 Free energy of the ion-electron system (eV)
  ---------------------------------------------------
  alpha Z        PSCENC =         0.09979497
  Ewald energy   TEWEN  =      1717.47150425
  -Hartree energ DENC   =     -3408.46885253
  -exchange      EXHF   =         0.00000000
  -V(xc)+E(xc)   XCENC  =       139.48949557
  PAW double counting   =      3112.63794138    -3121.56079803
  entropy T*S    EENTRO =        -0.00000000
  eigenvalues    EBANDS =      -509.48215665
  atomic energy  EATOM  =      2023.81668923
  Solvation  Ediel_sol  =         0.00000000
  ---------------------------------------------------
  free energy    TOTEN  =       -45.99638180 eV

  energy without entropy =      -45.99638180  energy(sigma->0) =      -45.99638180


--------------------------------------------------------------------------------------------------------




--------------------------------------- Iteration      1(  28)  ---------------------------------------


    POTLOK:  cpu time   12.6160: real time   12.6371
    SETDIJ:  cpu time    0.0401: real time    0.0401
     EDDAV:  cpu time   19.0080: real time   19.0465
       DOS:  cpu time    0.0169: real time    0.0169
    CHARGE:  cpu time    5.3082: real time    5.3202
    MIXING:  cpu time    0.5345: real time    0.5355
    --------------------------------------------
      LOOP:  cpu time   37.5237: real time   37.5964

 eigenvalue-minimisations  :   128
 total energy-change (2. order) :-0.1348121E-06  (-0.3720899E-08)
 number of electron      32.0000000 magnetization 
 augmentation part        2.6787735 magnetization 

 Broyden mixing:
  rms(total) = 0.35485E-06    rms(broyden)= 0.35485E-06
  rms(prec ) = 0.41182E-06
  weight for this iteration     100.00

 eigenvalues of (default mixing * dielectric matrix)
  average eigenvalue GAMMA=   2.4989
  9.8178  7.7561  6.0839  4.7493  3.6403  2.9747  2.6204  2.4654  2.1607  1.7003
  1.7003  1.5670  0.9430  0.9430  1.0347  0.9447  0.9447  0.9380  0.9380  0.9538
  0.9538  0.8225  0.8225

 Free energy of the ion-electron system (eV)
  ---------------------------------------------------
  alpha Z        PSCENC =         0.09979497
  Ewald energy   TEWEN  =      1717.47150425
  -Hartree energ DENC   =     -3408.46883479
  -exchange      EXHF   =         0.00000000
  -V(xc)+E(xc)   XCENC  =       139.48949565
  PAW double counting   =      3112.63852395    -3121.56137954
  entropy T*S    EENTRO =        -0.00000000
  eigenvalues    EBANDS =      -509.48217566
  atomic energy  EATOM  =      2023.81668923
  Solvation  Ediel_sol  =         0.00000000
  ---------------------------------------------------
  free energy    TOTEN  =       -45.99638194 eV

  energy without entropy =      -45.99638194  energy(sigma->0) =      -45.99638194


--------------------------------------------------------------------------------------------------------




--------------------------------------- Iteration      1(  29)  ---------------------------------------


    POTLOK:  cpu time   12.6415: real time   12.6630
    SETDIJ:  cpu time    0.0401: real time    0.0401
     EDDAV:  cpu time   19.0043: real time   19.0506
       DOS:  cpu time    0.0207: real time    0.0207
    --------------------------------------------
      LOOP:  cpu time   31.7065: real time   31.7744

 eigenvalue-minimisations  :   128
 total energy-change (2. order) :-0.4014737E-07  (-0.3399983E-08)
 number of electron      32.0000000 magnetization 
 augmentation part        2.6787735 magnetization 

 Free energy of the ion-electron system (eV)
  ---------------------------------------------------
  alpha Z        PSCENC =         0.09979497
  Ewald energy   TEWEN  =      1717.47150425
  -Hartree energ DENC   =     -3408.46881742
  -exchange      EXHF   =         0.00000000
  -V(xc)+E(xc)   XCENC  =       139.48949526
  PAW double counting   =      3112.63848529    -3121.56134108
  entropy T*S    EENTRO =        -0.00000000
  eigenvalues    EBANDS =      -509.48219248
  atomic energy  EATOM  =      2023.81668923
  Solvation  Ediel_sol  =         0.00000000
  ---------------------------------------------------
  free energy    TOTEN  =       -45.99638198 eV

  energy without entropy =      -45.99638198  energy(sigma->0) =      -45.99638198


--------------------------------------------------------------------------------------------------------




 average (electrostatic) potential at core
  the test charge radii are     0.6991  0.7215
  (the norm of the test charge is              1.0000)
       1 -63.7428       2 -63.6169       3 -82.7652       4 -82.7521       5 -82.6326
       6 -82.6327
 
 
 
 E-fermi :  -8.9458     XC(G=0):  -0.0399     alpha+bet : -0.0117


 k-point     1 :       0.0000    0.0000    0.0000
  band No.  band energies     occupation 
      1     -29.2912      2.00000
      2     -29.1657      2.00000
      3     -28.2842      2.00000
      4     -28.1588      2.00000
      5     -13.8271      2.00000
      6     -13.6984      2.00000
      7     -12.7573      2.00000
      8     -12.7560      2.00000
      9     -12.6805      2.00000
     10     -12.6341      2.00000
     11     -12.6216      2.00000
     12     -12.5452      2.00000
     13      -9.1434      2.00000
     14      -9.1424      2.00000
     15      -9.0196      2.00000
     16      -9.0154      2.00000
     17      -1.1824      0.00000
     18      -0.7667      0.00000
     19      -0.5746      0.00000
     20      -0.5719      0.00000
     21      -0.4485      0.00000
     22      -0.4430      0.00000
     23       0.0089      0.00000
     24       0.1098      0.00000
     25       0.1141      0.00000
     26       0.1241      0.00000
     27       0.1255      0.00000
     28       0.1319      0.00000
     29       0.1505      0.00000
     30       0.2050      0.00000
     31       0.2127      0.00000
     32       0.2449      0.00000


--------------------------------------------------------------------------------------------------------


 soft charge-density along one line, spin component            1
         0         1         2         3         4         5         6         7         8         9
 total charge-density along one line
 
 pseudopotential strength for first ion, spin component:            1
 10.558  14.049   0.000   0.000   0.000  -0.000  -0.000  -0.000
 14.049  18.692   0.000   0.000   0.000  -0.000  -0.000  -0.000
  0.000   0.000  -4.693   0.000   0.000   9.161  -0.000  -0.000
  0.000   0.000   0.000  -4.619  -0.000  -0.000   9.037   0.000
  0.000   0.000   0.000  -0.000  -4.619  -0.000   0.000   9.037
 -0.000  -0.000   9.161  -0.000  -0.000 -20.041   0.000   0.000
 -0.000  -0.000  -0.000   9.037   0.000   0.000 -19.835  -0.000
 -0.000  -0.000  -0.000   0.000   9.037   0.000  -0.000 -19.835
 total augmentation occupancy for first ion, spin component:            1
 11.135  -5.615   0.001  -0.000  -0.000   0.000  -0.000  -0.000
 -5.615   3.039  -0.001   0.000  -0.000  -0.000   0.000   0.000
  0.001  -0.001   2.593  -0.000  -0.000   0.330  -0.000  -0.000
 -0.000   0.000  -0.000   1.238  -0.000   0.000   0.083   0.000
 -0.000  -0.000  -0.000  -0.000   1.238   0.000   0.000   0.083
  0.000  -0.000   0.330   0.000   0.000   0.051  -0.000  -0.000
 -0.000   0.000  -0.000   0.083   0.000  -0.000   0.006   0.000
 -0.000   0.000  -0.000   0.000   0.083  -0.000   0.000   0.006


------------------------ aborting loop because EDIFF is reached ----------------------------------------



 DIPCOR: dipole corrections for dipol
 direction  1 min pos   356, direction  2 min pos   372, direction  3 min pos   414,
 dipolmoment           0.000002      0.012937     -0.000035 electrons x Angstroem
 Tr[quadrupol]        15.815239

 energy correction for charged system         0.000000 eV
 dipol+quadrupol energy correction            0.000000 eV
 added-field ion interaction          0.000000 eV  (added to PSCEN)

 
  *************** adding dipol energy to TOTEN NOW **************** 
    CHARGE:  cpu time    5.3291: real time    5.3385
    FORLOC:  cpu time    0.4407: real time    0.4414
    FORNL :  cpu time    0.5583: real time    0.5592
    STRESS:  cpu time   10.1985: real time   10.2180
    FORCOR:  cpu time   11.0912: real time   11.1095
    FORHAR:  cpu time    3.1957: real time    3.2011
    MIXING:  cpu time    0.5372: real time    0.5383
    OFIELD:  cpu time    0.0000: real time    0.0000

  Hirshfeld charges:
            ion         q(e)     
   ------------------------------
      1     C           0.294
      2     C           0.292
      3     O          -0.147
      4     O          -0.145
      5     O          -0.147
      6     O          -0.147

  Hirshfeld-I charges:
            ion         q(e)        dq(e)    
   ------------------------------------------
      1     C           0.844     -0.459E-04
      2     C           0.843     -0.431E-04
      3     O          -0.425      0.232E-04
      4     O          -0.419      0.229E-04
      5     O          -0.421      0.214E-04
      6     O          -0.421      0.214E-04

   Hirshfeld-I converged in  15 cycles. Convergence criterion |dq|< 0.500E-04 e

  Atomic reference data used in the T-S method for vdW correction:
            C6at              R0at           ALPHAat      REFSTATE
            (au)              (au)            (au)                
   ---------------------------------------------------------------
   C          46.600          3.590         12.000         0
   O          15.600          3.194          5.400         0

  Tkatchenko/Scheffler method for vdW energy calculation
  ---------------------------------------------------------------------------------------------

  Parameters of vdW forcefield:
            C6ts              R0ts           ALPHAts        RELVOL
            (au)              (au)            (au)                
   ---------------------------------------------------------------
   C           9.057          2.733          5.290          0.44084530
   C           9.080          2.734          5.297          0.44140965
   O          18.882          3.297          5.941          1.10016159
   O          18.433          3.284          5.870          1.08701032
   O          18.564          3.288          5.891          1.09085655
   O          18.563          3.288          5.891          1.09084172

  vdW correction parametrized for the method pbe       

  IVDW =  21
  VDW_RADIUS =    50.000 A
  VDW_IDAMPF =  0
  VDW_S6 =     1.000
  VDW_SR =     0.950
  VDW_D =    20.000
  LVDW_ONECELL = F F F
  LVDW_SAMETYPE T T
  LVDW_EWALD = F

  Number of pair interactions contributing to vdW energy:     321
  Edisp (eV):   -0.00551
    FORVDW:  cpu time   80.3018: real time   80.3614

  FORCE on cell =-STRESS in cart. coord.  units (eV):
  Direction    XX          YY          ZZ          XY          YZ          ZX
  --------------------------------------------------------------------------------------
  Alpha Z     0.09979     0.09979     0.09979
  Ewald    -201.96354  1282.57905   636.85678    -0.11128    -4.93932   -10.89521
  Hartree   653.12480  1685.25820  1070.08581    -0.14405    -1.79815    -5.40162
  E(xc)    -150.33985  -148.23288  -148.23283     0.00021    -0.01596    -0.02743
  Local    -918.35404 -3361.88803 -2100.99279     0.26258     6.18311    15.34457
  n-local   -97.16032  -103.26524  -103.26838    -0.00060     0.04612     0.07952
  augment    26.56738    23.80413    23.80609    -0.00030     0.02096     0.03594
  Kinetic   688.00417   623.02666   623.09264    -0.00643     0.49218     0.84510
  Fock        0.00000     0.00000     0.00000     0.00000     0.00000     0.00000
  vdW        -0.00000    -0.02736     0.00029     0.00001    -0.00011    -0.00000
  -------------------------------------------------------------------------------------
  Total      -0.02161     1.35431     1.44740     0.00015    -0.01116    -0.01914
  in kB      -0.00081     0.05061     0.05409     0.00001    -0.00042    -0.00072
  external pressure =        0.03 kB  Pullay stress =        0.00 kB


 VOLUME and BASIS-vectors are now :
 -----------------------------------------------------------------------------
  energy-cutoff  :     1000.00
  volume of cell :    42875.00
      direct lattice vectors                 reciprocal lattice vectors
    35.000000000  0.000000000  0.000000000     0.028571429  0.000000000  0.000000000
     0.000000000 35.000000000  0.000000000     0.000000000  0.028571429  0.000000000
     0.000000000  0.000000000 35.000000000     0.000000000  0.000000000  0.028571429

  length of vectors
    35.000000000 35.000000000 35.000000000     0.028571429  0.028571429  0.028571429


 FORCES acting on ions
    electron-ion (+dipol)            ewald-force                    non-local-force                 convergence-correction
 -----------------------------------------------------------------------------------------------
   -.812E-02 0.287E+02 0.573E-01   0.812E-02 -.288E+02 -.573E-01   0.282E-05 0.242E-01 0.507E-04   -.313E-08 0.239E-05 -.263E-07
   0.103E-01 -.337E+02 -.514E-01   -.102E-01 0.337E+02 0.517E-01   0.146E-05 0.404E-02 -.127E-03   0.131E-07 -.476E-07 -.135E-05
   -.246E-01 -.214E+03 0.182E+00   0.246E-01 0.278E+03 -.181E+00   -.396E-04 -.642E+02 -.135E-02   -.902E-08 0.280E-05 -.379E-07
   -.682E-02 0.311E+03 0.467E-01   0.682E-02 -.376E+03 -.465E-01   0.179E-05 0.644E+02 -.163E-03   0.818E-08 -.952E-06 0.581E-08
   0.383E+01 -.445E+02 -.293E+03   -.467E+01 0.439E+02 0.358E+03   0.837E+00 0.573E+00 -.643E+02   0.170E-07 -.494E-06 0.572E-06
   -.380E+01 -.485E+02 0.293E+03   0.464E+01 0.489E+02 -.358E+03   -.837E+00 -.401E+00 0.643E+02   0.139E-07 -.459E-06 -.150E-05
 -----------------------------------------------------------------------------------------------
   0.138E-03 -.418E+00 0.674E-03   0.000E+00 -.426E-13 0.000E+00   -.121E-03 0.418E+00 -.104E-02   0.400E-07 0.324E-05 -.234E-05
 
 
 POSITION                                       TOTAL-FORCE (eV/Angst)
 -----------------------------------------------------------------------------------
      0.00000      0.05699      0.00000        -0.000005     -0.039210      0.000124
     34.99851      5.52718      0.00754         0.000009     -0.029646      0.000208
      0.00000      1.22721      0.00000        -0.000008      0.658853     -0.000007
      0.00000     33.88677      0.00000        -0.000002     -0.601798      0.000065
     34.98327      5.51833      1.17763        -0.008265      0.001243      0.627806
      0.01374      5.53603     33.83746         0.008271      0.010558     -0.628197
 -----------------------------------------------------------------------------------
    total drift:                                0.000018     -0.000422     -0.000371


--------------------------------------------------------------------------------------------------------



  FREE ENERGIE OF THE ION-ELECTRON SYSTEM (eV)
  ---------------------------------------------------
  free  energy   TOTEN  =       -46.00189649 eV

  energy  without entropy=      -46.00189649  energy(sigma->0) =      -46.00189649
 


--------------------------------------------------------------------------------------------------------


    POTLOK:  cpu time   13.2297: real time   13.2562


--------------------------------------------------------------------------------------------------------


 writing wavefunctions
     LOOP+:  cpu time 1336.4114: real time 1338.6217
    4ORBIT:  cpu time    0.0000: real time    0.0000

 total amount of memory used by VASP MPI-rank0  4007897. kBytes
=======================================================================

   base      :      30000. kBytes
   nonl-proj :     344787. kBytes
   fftplans  :     676185. kBytes
   grid      :    2932288. kBytes
   one-center:          9. kBytes
   wavefun   :      24628. kBytes
 
  
  
 General timing and accounting informations for this job:
 ========================================================
  
                  Total CPU time used (sec):     2428.915
                            User time (sec):     2272.394
                          System time (sec):      156.521
                         Elapsed time (sec):     2433.957
  
                   Maximum memory used (kb):     5428888.
                   Average memory used (kb):           0.
  
                          Minor page faults:     75954668
                          Major page faults:          861
                 Voluntary context switches:        13169
