 vasp.6.1.2 22Jul20 (build Jan  6 2021 09:55:43) gamma-only                      
 executed on             LinuxPGI date 2023.10.20  05:03:56
 running on   32 total cores
 distrk:  each k-point on   32 cores,    1 groups
 distr:  one band on NCORE=   1 cores,   32 groups


--------------------------------------------------------------------------------------------------------


 INCAR:
 POTCAR:    PAW_PBE C 08Apr2002                   
 POTCAR:    PAW_PBE O 08Apr2002                   
 -----------------------------------------------------------------------------
|                                                                             |
|           W    W    AA    RRRRR   N    N  II  N    N   GGGG   !!!           |
|           W    W   A  A   R    R  NN   N  II  NN   N  G    G  !!!           |
|           W    W  A    A  R    R  N N  N  II  N N  N  G       !!!           |
|           W WW W  AAAAAA  RRRRR   N  N N  II  N  N N  G  GGG   !            |
|           WW  WW  A    A  R   R   N   NN  II  N   NN  G    G                |
|           W    W  A    A  R    R  N    N  II  N    N   GGGG   !!!           |
|                                                                             |
|     For optimal performance we recommend to set                             |
|       NCORE = 4 - approx SQRT(number of cores).                             |
|     NCORE specifies how many cores store one orbital (NPAR=cpu/NCORE).      |
|     This setting can greatly improve the performance of VASP for DFT.       |
|     The default, NCORE=1 might be grossly inefficient on modern             |
|     multi-core architectures or massively parallel machines. Do your        |
|     own testing!!!!                                                         |
|     Unfortunately you need to use the default for GW and RPA                |
|     calculations (for HF NCORE is supported but not extensively tested      |
|     yet).                                                                   |
|                                                                             |
 -----------------------------------------------------------------------------

 POTCAR:    PAW_PBE C 08Apr2002                   
   VRHFIN =C: s2p2                                                                                  
   LEXCH  = PE                                                                                      
   EATOM  =   147.1560 eV,   10.8157 Ry                                                             
                                                                                                    
   TITEL  = PAW_PBE C 08Apr2002                                                                     
   LULTRA =        F    use ultrasoft PP ?                                                          
   IUNSCR =        1    unscreen: 0-lin 1-nonlin 2-no                                               
   RPACOR =    1.200    partial core radius                                                         
   POMASS =   12.011; ZVAL   =    4.000    mass and valenz                                          
   RCORE  =    1.500    outmost cutoff radius                                                       
   RWIGS  =    1.630; RWIGS  =    0.863    wigner-seitz radius (au A)                               
   ENMAX  =  400.000; ENMIN  =  300.000 eV                                                          
   ICORE  =        2    local potential                                                             
   LCOR   =        T    correct aug charges                                                         
   LPAW   =        T    paw PP                                                                      
   EAUG   =  644.873                                                                                
   DEXC   =    0.000                                                                                
   RMAX   =    1.529    core radius for proj-oper                                                   
   RAUG   =    1.300    factor for augmentation sphere                                              
   RDEP   =    1.501    radius for radial grids                                                     
   RDEPT  =    1.300    core radius for aug-charge                                                  
                                                                                                    
   Atomic configuration                                                                             
    4 entries                                                                                       
     n  l   j            E        occ.                                                              
     1  0  0.50      -273.3789   2.0000                                                             
     2  0  0.50       -13.7508   2.0000                                                             
     2  1  0.50        -5.2854   2.0000                                                             
     3  2  1.50        -5.4423   0.0000                                                             
   Description                                                                                      
     l       E           TYP  RCUT    TYP  RCUT                                                     
     0    -13.7508458     23  1.200                                                                 
     0     -8.2022199     23  1.200                                                                 
     1     -5.2854383     23  1.500                                                                 
     1     34.0145650     23  1.500                                                                 
     2     -5.4423304      7  1.500                                                                 
  local pseudopotential read in
  partial core-charges read in
  partial kinetic energy density read in
  atomic valenz-charges read in
  non local Contribution for L=            0  read in
    real space projection operators read in
  non local Contribution for L=            0  read in
    real space projection operators read in
  non local Contribution for L=            1  read in
    real space projection operators read in
  non local Contribution for L=            1  read in
    real space projection operators read in
    PAW grid and wavefunctions read in
 
   number of l-projection  operators is LMAX  =            4
   number of lm-projection operators is LMMAX =            8
 
 POTCAR:    PAW_PBE O 08Apr2002                   
   VRHFIN =O: s2p4                                                                                  
   LEXCH  = PE                                                                                      
   EATOM  =   432.3788 eV,   31.7789 Ry                                                             
                                                                                                    
   TITEL  = PAW_PBE O 08Apr2002                                                                     
   LULTRA =        F    use ultrasoft PP ?                                                          
   IUNSCR =        1    unscreen: 0-lin 1-nonlin 2-no                                               
   RPACOR =    1.200    partial core radius                                                         
   POMASS =   16.000; ZVAL   =    6.000    mass and valenz                                          
   RCORE  =    1.520    outmost cutoff radius                                                       
   RWIGS  =    1.550; RWIGS  =    0.820    wigner-seitz radius (au A)                               
   ENMAX  =  400.000; ENMIN  =  300.000 eV                                                          
   ICORE  =        2    local potential                                                             
   LCOR   =        T    correct aug charges                                                         
   LPAW   =        T    paw PP                                                                      
   EAUG   =  605.392                                                                                
   DEXC   =    0.000                                                                                
   RMAX   =    1.553    core radius for proj-oper                                                   
   RAUG   =    1.300    factor for augmentation sphere                                              
   RDEP   =    1.550    radius for radial grids                                                     
   RDEPT  =    1.329    core radius for aug-charge                                                  
                                                                                                    
   Atomic configuration                                                                             
    4 entries                                                                                       
     n  l   j            E        occ.                                                              
     1  0  0.50      -514.6923   2.0000                                                             
     2  0  0.50       -23.9615   2.0000                                                             
     2  1  0.50        -9.0305   4.0000                                                             
     3  2  1.50        -9.5241   0.0000                                                             
   Description                                                                                      
     l       E           TYP  RCUT    TYP  RCUT                                                     
     0    -23.9615318     23  1.200                                                                 
     0     -9.5240782     23  1.200                                                                 
     1     -9.0304911     23  1.520                                                                 
     1      8.1634956     23  1.520                                                                 
     2     -9.5240782      7  1.500                                                                 
  local pseudopotential read in
  partial core-charges read in
  partial kinetic energy density read in
  kinetic energy density of atom read in
  atomic valenz-charges read in
  non local Contribution for L=            0  read in
    real space projection operators read in
  non local Contribution for L=            0  read in
    real space projection operators read in
  non local Contribution for L=            1  read in
    real space projection operators read in
  non local Contribution for L=            1  read in
    real space projection operators read in
    PAW grid and wavefunctions read in
 
   number of l-projection  operators is LMAX  =            4
   number of lm-projection operators is LMMAX =            8
 
  PAW_PBE C 08Apr2002                   :
 energy of atom  1       EATOM= -147.1560
 kinetic energy error for atom=    0.0010 (will be added to EATOM!!)
  PAW_PBE O 08Apr2002                   :
 energy of atom  2       EATOM= -432.3788
 kinetic energy error for atom=    0.0022 (will be added to EATOM!!)
 
 
 POSCAR:  C  O
  positions in cartesian coordinates
  No initial velocities read in
 exchange correlation table for  LEXCH =        8
   RHO(1)=    0.500       N(1)  =     2000
   RHO(2)=  100.500       N(2)  =     4000
 


--------------------------------------------------------------------------------------------------------


 ion  position               nearest neighbor table
   1  1.000  0.078  0.000-   2 1.17   3 1.17
   2  1.000  0.078  0.034-   1 1.17
   3  0.000  0.078  0.967-   1 1.17
 
  LATTYP: Found a simple cubic cell.
 ALAT       =    35.0000000000
  
  Lattice vectors:
  
 A1 = (  35.0000000000,   0.0000000000,   0.0000000000)
 A2 = (   0.0000000000,  35.0000000000,   0.0000000000)
 A3 = (   0.0000000000,   0.0000000000,  35.0000000000)


Analysis of symmetry for initial positions (statically):
=====================================================================
 Subroutine PRICEL returns:
 Original cell was already a primitive cell.
 

 Routine SETGRP: Setting up the symmetry group for a 
 simple cubic supercell.


 Subroutine GETGRP returns: Found  2 space group operations
 (whereof  1 operations were pure point group operations)
 out of a pool of 48 trial point group operations.


The static configuration has the point symmetry C_1 .
 The point group associated with its full space group is S_2 .


Analysis of symmetry for dynamics (positions and initial velocities):
=====================================================================
 Subroutine PRICEL returns:
 Original cell was already a primitive cell.
 

 Routine SETGRP: Setting up the symmetry group for a 
 simple cubic supercell.


 Subroutine GETGRP returns: Found  2 space group operations
 (whereof  1 operations were pure point group operations)
 out of a pool of 48 trial point group operations.


The dynamic configuration has the point symmetry C_1 .
 The point group associated with its full space group is S_2 .


 Subroutine INISYM returns: Found  2 space group operations
 (whereof  1 operations are pure point group operations),
 and found     1 'primitive' translations


----------------------------------------------------------------------------------------

                                     Primitive cell                                     

  volume of cell :   42875.0000

  direct lattice vectors                    reciprocal lattice vectors
    35.000000000  0.000000000  0.000000000     0.028571429  0.000000000  0.000000000
     0.000000000 35.000000000  0.000000000     0.000000000  0.028571429  0.000000000
     0.000000000  0.000000000 35.000000000     0.000000000  0.000000000  0.028571429

  length of vectors
    35.000000000 35.000000000 35.000000000     0.028571429  0.028571429  0.028571429

  position of ions in fractional coordinates (direct lattice)
     0.999957287  0.077919327  0.000215536
     0.999522117  0.077666472  0.033646605
     0.000392457  0.078172181  0.966784468

  ion indices of the primitive-cell ions
   primitive index   ion index
                 1           1
                 2           2
                 3           3

----------------------------------------------------------------------------------------

 
 
 KPOINTS: g                                       

Automatic generation of k-mesh.
Space group operators:
 irot       det(A)        alpha          n_x          n_y          n_z        tau_x        tau_y        tau_z
    1     1.000000     0.000000     1.000000     0.000000     0.000000     0.000000     0.000000     0.000000
    2    -1.000000     0.000000     1.000000     0.000000     0.000000    -0.000085     0.155839     0.000431
 
 Subroutine IBZKPT returns following result:
 ===========================================
 
 Found      1 irreducible k-points:
 
 Following reciprocal coordinates:
            Coordinates               Weight
  0.000000  0.000000  0.000000      1.000000
 
 Following cartesian coordinates:
            Coordinates               Weight
  0.000000  0.000000  0.000000      1.000000
 


--------------------------------------------------------------------------------------------------------




 Dimension of arrays:
   k-points           NKPTS =      1   k-points in BZ     NKDIM =      1   number of bands    NBANDS=     32
   number of dos      NEDOS =    301   number of ions     NIONS =      3
   non local maximal  LDIM  =      4   non local SUM 2l+1 LMDIM =      8
   total plane-waves  NPLWV = ******
   max r-space proj   IRMAX =      1   max aug-charges    IRDMAX=  16541
   dimension x,y,z NGX =   378 NGY =  378 NGZ =  378
   dimension x,y,z NGXF=   756 NGYF=  756 NGZF=  756
   support grid    NGXF=   756 NGYF=  756 NGZF=  756
   ions per type =               1   2
   NGX,Y,Z   is equivalent  to a cutoff of  17.95, 17.95, 17.95 a.u.
   NGXF,Y,Z  is equivalent  to a cutoff of  35.91, 35.91, 35.91 a.u.

 SYSTEM =  C                                       
 POSCAR =   C  O                                   

 Startparameter for this run:
   NWRITE =      2    write-flag & timer
   PREC   = acc       normal or accurate (medium, high low for compatibility)
   ISTART =      0    job   : 0-new  1-cont  2-samecut
   ICHARG =      2    charge: 1-file 2-atom 10-const
   ISPIN  =      1    spin polarized calculation?
   LNONCOLLINEAR =      F non collinear calculations
   LSORBIT =      F    spin-orbit coupling
   INIWAV =      1    electr: 0-lowe 1-rand  2-diag
   LASPH  =      T    aspherical Exc in radial PAW
   METAGGA=      F    non-selfconsistent MetaGGA calc.

 Electronic Relaxation 1
   ENCUT  = 1000.0 eV  73.50 Ry    8.57 a.u.  90.25 90.25 90.25*2*pi/ulx,y,z
   ENINI  = 1000.0     initial cutoff
   ENAUG  =  644.9 eV  augmentation charge cutoff
   NELM   =     60;   NELMIN=  2; NELMDL= -5     # of ELM steps 
   EDIFF  = 0.1E-06   stopping-criterion for ELM
   LREAL  =      F    real-space projection
   NLSPLINE    = F    spline interpolate recip. space projectors
   LCOMPAT=      F    compatible to vasp.4.4
   GGA_COMPAT  = T    GGA compatible to vasp.4.4-vasp.4.6
   LMAXPAW     = -100 max onsite density
   LMAXMIX     =    2 max onsite mixed and CHGCAR
   VOSKOWN=      0    Vosko Wilk Nusair interpolation
   ROPT   =    0.00000   0.00000
 Ionic relaxation
   EDIFFG = 0.1E-05   stopping-criterion for IOM
   NSW    =      0    number of steps for IOM
   NBLOCK =      1;   KBLOCK =      1    inner block; outer block 
   IBRION =     -1    ionic relax: 0-MD 1-quasi-New 2-CG
   NFREE  =      0    steps in history (QN), initial steepest desc. (CG)
   ISIF   =      2    stress and relaxation
   IWAVPR =     10    prediction:  0-non 1-charg 2-wave 3-comb
   ISYM   =      2    0-nonsym 1-usesym 2-fastsym
   LCORR  =      T    Harris-Foulkes like correction to forces

   POTIM  = 0.5000    time-step for ionic-motion
   TEIN   =    0.0    initial temperature
   TEBEG  =    0.0;   TEEND  =   0.0 temperature during run
   SMASS  =  -3.00    Nose mass-parameter (am)
   estimated Nose-frequenzy (Omega)   =  0.10E-29 period in steps = 0.13E+47 mass=  -0.280E-25a.u.
   SCALEE = 1.0000    scale energy and forces
   NPACO  =    256;   APACO  = 16.0  distance and # of slots for P.C.
   PSTRESS=    0.0 pullay stress

  Mass of Ions in am
   POMASS =  12.01 16.00
  Ionic Valenz
   ZVAL   =   4.00  6.00
  Atomic Wigner-Seitz radii
   RWIGS  =  -1.00 -1.00
  virtual crystal weights 
   VCA    =   1.00  1.00
   NELECT =      16.0000    total number of electrons
   NUPDOWN=      -1.0000    fix difference up-down

 DOS related values:
   EMIN   =  10.00;   EMAX   =-10.00  energy-range for DOS
   EFERMI =   0.00
   ISMEAR =     0;   SIGMA  =   0.01  broadening in eV -4-tet -1-fermi 0-gaus

 Electronic relaxation 2 (details)
   IALGO  =     38    algorithm
   LDIAG  =      T    sub-space diagonalisation (order eigenvalues)
   LSUBROT=      F    optimize rotation matrix (better conditioning)
   TURBO    =      0    0=normal 1=particle mesh
   IRESTART =      0    0=no restart 2=restart with 2 vectors
   NREBOOT  =      0    no. of reboots
   NMIN     =      0    reboot dimension
   EREF     =   0.00    reference energy to select bands
   IMIX   =      4    mixing-type and parameters
     AMIX     =   0.40;   BMIX     =  1.00
     AMIX_MAG =   1.60;   BMIX_MAG =  1.00
     AMIN     =   0.10
     WC   =   100.;   INIMIX=   1;  MIXPRE=   1;  MAXMIX= -45

 Intra band minimization:
   WEIMIN = 0.0000     energy-eigenvalue tresh-hold
   EBREAK =  0.78E-09  absolut break condition
   DEPER  =   0.30     relativ break condition  

   TIME   =   0.40     timestep for ELM

  volume/ion in A,a.u.               =   14291.67     96444.93
  Fermi-wavevector in a.u.,A,eV,Ry     =   0.117864  0.222730  0.189010  0.013892
  Thomas-Fermi vector in A             =   0.732055
 
 Write flags
   LWAVE        =      T    write WAVECAR
   LDOWNSAMPLE  =      F    k-point downsampling of WAVECAR
   LCHARG       =      T    write CHGCAR
   LVTOT        =      F    write LOCPOT, total local potential
   LVHAR        =      F    write LOCPOT, Hartree potential only
   LELF         =      F    write electronic localiz. function (ELF)
   LORBIT       =      0    0 simple, 1 ext, 2 COOP (PROOUT), +10 PAW based schemes


 Dipole corrections
   LMONO  =      F    monopole corrections only (constant potential shift)
   LDIPOL =      F    correct potential (dipole corrections)
   IDIPOL =      4    1-x, 2-y, 3-z, 4-all directions 
   EPSILON=  1.0000000 bulk dielectric constant

 Exchange correlation treatment:
   GGA     =    --    GGA type
   LEXCH   =     8    internal setting for exchange type
   VOSKOWN=      0    Vosko Wilk Nusair interpolation
   LHFCALC =     F    Hartree Fock is set to
   LHFONE  =     F    Hartree Fock one center treatment
   AEXX    =    0.0000 exact exchange contribution

 Linear response parameters
   LEPSILON=     F    determine dielectric tensor
   LRPA    =     F    only Hartree local field effects (RPA)
   LNABLA  =     F    use nabla operator in PAW spheres
   LVEL    =     F    velocity operator in full k-point grid
   LINTERFAST=   F  fast interpolation
   KINTER  =     0    interpolate to denser k-point grid
   CSHIFT  =0.1000    complex shift for real part using Kramers Kronig
   OMEGAMAX=  -1.0    maximum frequency
   DEG_THRESHOLD= 0.2000000E-02 threshold for treating states as degnerate
   RTIME   =   -0.100 relaxation time in fs
  (WPLASMAI=    0.000 imaginary part of plasma frequency in eV, 0.658/RTIME)
   DFIELD  = 0.0000000 0.0000000 0.0000000 field for delta impulse in time
 
 Orbital magnetization related:
   ORBITALMAG=     F  switch on orbital magnetization
   LCHIMAG   =     F  perturbation theory with respect to B field
   DQ        =  0.001000  dq finite difference perturbation B field
   LLRAUG    =     F  two centre corrections for induced B field



--------------------------------------------------------------------------------------------------------


 Static calculation
 charge density and potential will be updated during run
 non-spin polarized calculation
 Variant of blocked Davidson
 Davidson routine will perform the subspace rotation
 perform sub-space diagonalisation
    after iterative eigenvector-optimisation
 modified Broyden-mixing scheme, WC =      100.0
 initial mixing is a Kerker type mixing with AMIX =  0.4000 and BMIX =      1.0000
 Hartree-type preconditioning will be used
 using additional bands            24
 reciprocal scheme for non local part
 use partial core corrections
 calculate Harris-corrections to forces 
   (improved forces if not selfconsistent)
 use gradient corrections 
 use of overlap-Matrix (Vanderbilt PP)
 Gauss-broadening in eV      SIGMA  =   0.01


--------------------------------------------------------------------------------------------------------


  energy-cutoff  :     1000.00
  volume of cell :    42875.00
      direct lattice vectors                 reciprocal lattice vectors
    35.000000000  0.000000000  0.000000000     0.028571429  0.000000000  0.000000000
     0.000000000 35.000000000  0.000000000     0.000000000  0.028571429  0.000000000
     0.000000000  0.000000000 35.000000000     0.000000000  0.000000000  0.028571429

  length of vectors
    35.000000000 35.000000000 35.000000000     0.028571429  0.028571429  0.028571429


 
 k-points in units of 2pi/SCALE and weight: g                                       
   0.00000000  0.00000000  0.00000000       1.000
 
 k-points in reciprocal lattice and weights: g                                       
   0.00000000  0.00000000  0.00000000       1.000
 
 position of ions in fractional coordinates (direct lattice) 
   0.99995729  0.07791933  0.00021554
   0.99952212  0.07766647  0.03364661
   0.00039246  0.07817218  0.96678447
 
 position of ions in cartesian coordinates  (Angst):
  34.99850504  2.72717643  0.00754377
  34.98327409  2.71832652  1.17763118
   0.01373599  2.73602633 33.83745636
 


--------------------------------------------------------------------------------------------------------


 use serial FFT for orbitals x direction half grid
 k-point   1 :   0.0000 0.0000 0.0000  plane waves: 1539209

 maximum and minimum number of plane-waves per node :   1539209  1539209

 maximum number of plane-waves:   1539209
 maximum index in each direction: 
   IXMAX=   90   IYMAX=   90   IZMAX=   90
   IXMIN=    0   IYMIN=  -90   IZMIN=  -90


 serial   3D FFT for wavefunctions
 parallel 3D FFT for charge:
    minimum data exchange during FFTs selected (reduces bandwidth)


 total amount of memory used by VASP MPI-rank0  3934008. kBytes
=======================================================================

   base      :      30000. kBytes
   nonl-proj :     270904. kBytes
   fftplans  :     676185. kBytes
   grid      :    2932288. kBytes
   one-center:          4. kBytes
   wavefun   :      24627. kBytes
 
     INWAV:  cpu time    0.0000: real time    0.0000
 Broyden mixing: mesh for mixing (old mesh)
   NGX =181   NGY =181   NGZ =181
  (NGX  =756   NGY  =756   NGZ  =756)
  gives a total of ****** points

 initial charge density was supplied:
 charge density of overlapping atoms calculated
 number of electron      16.0000000 magnetization 
 keeping initial charge density in first step


--------------------------------------------------------------------------------------------------------


 Maximum index for augmentation-charges           761 (set IRDMAX)


--------------------------------------------------------------------------------------------------------


 First call to EWALD:  gamma=   0.051
 Maximum number of real-space cells 3x 3x 3
 Maximum number of reciprocal cells 3x 3x 3

    FEWALD:  cpu time    0.0036: real time    0.0036


--------------------------------------- Iteration      1(   1)  ---------------------------------------


    POTLOK:  cpu time   12.8280: real time   12.8489
    SETDIJ:  cpu time    0.0405: real time    0.0412
     EDDAV:  cpu time   17.6732: real time   17.7150
       DOS:  cpu time    0.0098: real time    0.0099
    --------------------------------------------
      LOOP:  cpu time   30.5515: real time   30.6150

 eigenvalue-minimisations  :   128
 total energy-change (2. order) : 0.1233745E+03  (-0.2987539E+03)
 number of electron      16.0000000 magnetization 
 augmentation part       16.0000000 magnetization 

 Free energy of the ion-electron system (eV)
  ---------------------------------------------------
  alpha Z        PSCENC =         0.02494874
  Ewald energy   TEWEN  =       662.91093129
  -Hartree energ DENC   =     -1467.98629503
  -exchange      EXHF   =         0.00000000
  -V(xc)+E(xc)   XCENC  =        67.57362811
  PAW double counting   =       801.62100016     -805.78774730
  entropy T*S    EENTRO =        -0.00000003
  eigenvalues    EBANDS =      -146.89028623
  atomic energy  EATOM  =      1011.90834462
  Solvation  Ediel_sol  =         0.00000000
  ---------------------------------------------------
  free energy    TOTEN  =       123.37452432 eV

  energy without entropy =      123.37452435  energy(sigma->0) =      123.37452434


--------------------------------------------------------------------------------------------------------




--------------------------------------- Iteration      1(   2)  ---------------------------------------


     EDDAV:  cpu time   17.6801: real time   17.7229
       DOS:  cpu time    0.0145: real time    0.0145
    --------------------------------------------
      LOOP:  cpu time   17.6947: real time   17.7375

 eigenvalue-minimisations  :   128
 total energy-change (2. order) :-0.1153767E+03  (-0.1153767E+03)
 number of electron      16.0000000 magnetization 
 augmentation part       16.0000000 magnetization 

 Free energy of the ion-electron system (eV)
  ---------------------------------------------------
  alpha Z        PSCENC =         0.02494874
  Ewald energy   TEWEN  =       662.91093129
  -Hartree energ DENC   =     -1467.98629503
  -exchange      EXHF   =         0.00000000
  -V(xc)+E(xc)   XCENC  =        67.57362811
  PAW double counting   =       801.62100016     -805.78774730
  entropy T*S    EENTRO =        -0.00000000
  eigenvalues    EBANDS =      -262.26695872
  atomic energy  EATOM  =      1011.90834462
  Solvation  Ediel_sol  =         0.00000000
  ---------------------------------------------------
  free energy    TOTEN  =         7.99785187 eV

  energy without entropy =        7.99785187  energy(sigma->0) =        7.99785187


--------------------------------------------------------------------------------------------------------




--------------------------------------- Iteration      1(   3)  ---------------------------------------


     EDDAV:  cpu time   10.8032: real time   10.8318
       DOS:  cpu time    0.0085: real time    0.0085
    --------------------------------------------
      LOOP:  cpu time   10.8116: real time   10.8402

 eigenvalue-minimisations  :    64
 total energy-change (2. order) :-0.3127705E+02  (-0.3127705E+02)
 number of electron      16.0000000 magnetization 
 augmentation part       16.0000000 magnetization 

 Free energy of the ion-electron system (eV)
  ---------------------------------------------------
  alpha Z        PSCENC =         0.02494874
  Ewald energy   TEWEN  =       662.91093129
  -Hartree energ DENC   =     -1467.98629503
  -exchange      EXHF   =         0.00000000
  -V(xc)+E(xc)   XCENC  =        67.57362811
  PAW double counting   =       801.62100016     -805.78774730
  entropy T*S    EENTRO =        -0.00000000
  eigenvalues    EBANDS =      -293.54400670
  atomic energy  EATOM  =      1011.90834462
  Solvation  Ediel_sol  =         0.00000000
  ---------------------------------------------------
  free energy    TOTEN  =       -23.27919612 eV

  energy without entropy =      -23.27919612  energy(sigma->0) =      -23.27919612


--------------------------------------------------------------------------------------------------------




--------------------------------------- Iteration      1(   4)  ---------------------------------------


     EDDAV:  cpu time   10.8093: real time   10.8449
       DOS:  cpu time    0.0102: real time    0.0102
    --------------------------------------------
      LOOP:  cpu time   10.8195: real time   10.8551

 eigenvalue-minimisations  :    64
 total energy-change (2. order) :-0.1461349E+01  (-0.1461349E+01)
 number of electron      16.0000000 magnetization 
 augmentation part       16.0000000 magnetization 

 Free energy of the ion-electron system (eV)
  ---------------------------------------------------
  alpha Z        PSCENC =         0.02494874
  Ewald energy   TEWEN  =       662.91093129
  -Hartree energ DENC   =     -1467.98629503
  -exchange      EXHF   =         0.00000000
  -V(xc)+E(xc)   XCENC  =        67.57362811
  PAW double counting   =       801.62100016     -805.78774730
  entropy T*S    EENTRO =        -0.00000000
  eigenvalues    EBANDS =      -295.00535568
  atomic energy  EATOM  =      1011.90834462
  Solvation  Ediel_sol  =         0.00000000
  ---------------------------------------------------
  free energy    TOTEN  =       -24.74054509 eV

  energy without entropy =      -24.74054509  energy(sigma->0) =      -24.74054509


--------------------------------------------------------------------------------------------------------




--------------------------------------- Iteration      1(   5)  ---------------------------------------


     EDDAV:  cpu time   17.7247: real time   17.7658
       DOS:  cpu time    0.0088: real time    0.0088
    CHARGE:  cpu time    9.7659: real time    9.7825
    MIXING:  cpu time    0.2368: real time    0.2372
    --------------------------------------------
      LOOP:  cpu time   27.7362: real time   27.7943

 eigenvalue-minimisations  :   128
 total energy-change (2. order) :-0.1486400E-01  (-0.1486402E-01)
 number of electron      16.0000000 magnetization 
 augmentation part        1.5221358 magnetization 

 Broyden mixing:
  rms(total) = 0.95399E+00    rms(broyden)= 0.95398E+00
  rms(prec ) = 0.97379E+00
  weight for this iteration     100.00

 Free energy of the ion-electron system (eV)
  ---------------------------------------------------
  alpha Z        PSCENC =         0.02494874
  Ewald energy   TEWEN  =       662.91093129
  -Hartree energ DENC   =     -1467.98629503
  -exchange      EXHF   =         0.00000000
  -V(xc)+E(xc)   XCENC  =        67.57362811
  PAW double counting   =       801.62100016     -805.78774730
  entropy T*S    EENTRO =        -0.00000000
  eigenvalues    EBANDS =      -295.02021968
  atomic energy  EATOM  =      1011.90834462
  Solvation  Ediel_sol  =         0.00000000
  ---------------------------------------------------
  free energy    TOTEN  =       -24.75540910 eV

  energy without entropy =      -24.75540910  energy(sigma->0) =      -24.75540910


--------------------------------------------------------------------------------------------------------




--------------------------------------- Iteration      1(   6)  ---------------------------------------


    POTLOK:  cpu time   12.5915: real time   12.6113
    SETDIJ:  cpu time    0.0399: real time    0.0399
     EDDAV:  cpu time   10.8213: real time   10.8487
       DOS:  cpu time    0.0177: real time    0.0177
    CHARGE:  cpu time    9.5990: real time    9.6100
    MIXING:  cpu time    0.2652: real time    0.2682
    --------------------------------------------
      LOOP:  cpu time   33.3347: real time   33.3958

 eigenvalue-minimisations  :    64
 total energy-change (2. order) : 0.1570522E+01  (-0.1006038E+01)
 number of electron      16.0000000 magnetization 
 augmentation part        1.3314056 magnetization 

 Broyden mixing:
  rms(total) = 0.43609E+00    rms(broyden)= 0.43609E+00
  rms(prec ) = 0.44024E+00
  weight for this iteration     100.00

 eigenvalues of (default mixing * dielectric matrix)
  average eigenvalue GAMMA=   1.0048
  1.0048

 Free energy of the ion-electron system (eV)
  ---------------------------------------------------
  alpha Z        PSCENC =         0.02494874
  Ewald energy   TEWEN  =       662.91093129
  -Hartree energ DENC   =     -1494.59987011
  -exchange      EXHF   =         0.00000000
  -V(xc)+E(xc)   XCENC  =        69.16594156
  PAW double counting   =      1067.22270564    -1071.81038969
  entropy T*S    EENTRO =        -0.00000000
  eigenvalues    EBANDS =      -268.00749876
  atomic energy  EATOM  =      1011.90834462
  Solvation  Ediel_sol  =         0.00000000
  ---------------------------------------------------
  free energy    TOTEN  =       -23.18488672 eV

  energy without entropy =      -23.18488672  energy(sigma->0) =      -23.18488672


--------------------------------------------------------------------------------------------------------




--------------------------------------- Iteration      1(   7)  ---------------------------------------


    POTLOK:  cpu time   12.5745: real time   12.5951
    SETDIJ:  cpu time    0.0401: real time    0.0401
     EDDAV:  cpu time   17.6699: real time   17.7108
       DOS:  cpu time    0.0077: real time    0.0077
    CHARGE:  cpu time    9.6959: real time    9.7073
    MIXING:  cpu time    0.2388: real time    0.2399
    --------------------------------------------
      LOOP:  cpu time   40.2270: real time   40.3009

 eigenvalue-minimisations  :   128
 total energy-change (2. order) : 0.1406311E+00  (-0.4126993E-01)
 number of electron      16.0000000 magnetization 
 augmentation part        1.3509902 magnetization 

 Broyden mixing:
  rms(total) = 0.24362E+00    rms(broyden)= 0.24362E+00
  rms(prec ) = 0.24596E+00
  weight for this iteration     100.00

 eigenvalues of (default mixing * dielectric matrix)
  average eigenvalue GAMMA=   1.6329
  0.9133  2.3525

 Free energy of the ion-electron system (eV)
  ---------------------------------------------------
  alpha Z        PSCENC =         0.02494874
  Ewald energy   TEWEN  =       662.91093129
  -Hartree energ DENC   =     -1499.31811385
  -exchange      EXHF   =         0.00000000
  -V(xc)+E(xc)   XCENC  =        69.34811444
  PAW double counting   =      1243.35522899    -1247.87101543
  entropy T*S    EENTRO =        -0.00000000
  eigenvalues    EBANDS =      -263.40269439
  atomic energy  EATOM  =      1011.90834462
  Solvation  Ediel_sol  =         0.00000000
  ---------------------------------------------------
  free energy    TOTEN  =       -23.04425559 eV

  energy without entropy =      -23.04425559  energy(sigma->0) =      -23.04425559


--------------------------------------------------------------------------------------------------------




--------------------------------------- Iteration      1(   8)  ---------------------------------------


    POTLOK:  cpu time   12.6088: real time   12.6293
    SETDIJ:  cpu time    0.0401: real time    0.0401
     EDDAV:  cpu time   14.3062: real time   14.3324
       DOS:  cpu time    0.0149: real time    0.0149
    CHARGE:  cpu time    9.7091: real time    9.7206
    MIXING:  cpu time    0.2422: real time    0.2426
    --------------------------------------------
      LOOP:  cpu time   36.9213: real time   36.9799

 eigenvalue-minimisations  :    96
 total energy-change (2. order) : 0.5799424E-01  (-0.2083940E-01)
 number of electron      16.0000000 magnetization 
 augmentation part        1.3414206 magnetization 

 Broyden mixing:
  rms(total) = 0.50379E-01    rms(broyden)= 0.50379E-01
  rms(prec ) = 0.51564E-01
  weight for this iteration     100.00

 eigenvalues of (default mixing * dielectric matrix)
  average eigenvalue GAMMA=   1.4282
  2.4450  0.9348  0.9047

 Free energy of the ion-electron system (eV)
  ---------------------------------------------------
  alpha Z        PSCENC =         0.02494874
  Ewald energy   TEWEN  =       662.91093129
  -Hartree energ DENC   =     -1507.69596631
  -exchange      EXHF   =         0.00000000
  -V(xc)+E(xc)   XCENC  =        69.76814884
  PAW double counting   =      1531.60000085    -1536.10425985
  entropy T*S    EENTRO =        -0.00000000
  eigenvalues    EBANDS =      -255.39840952
  atomic energy  EATOM  =      1011.90834462
  Solvation  Ediel_sol  =         0.00000000
  ---------------------------------------------------
  free energy    TOTEN  =       -22.98626134 eV

  energy without entropy =      -22.98626134  energy(sigma->0) =      -22.98626134


--------------------------------------------------------------------------------------------------------




--------------------------------------- Iteration      1(   9)  ---------------------------------------


    POTLOK:  cpu time   12.6383: real time   12.6589
    SETDIJ:  cpu time    0.0399: real time    0.0400
     EDDAV:  cpu time   14.3219: real time   14.3493
       DOS:  cpu time    0.0144: real time    0.0144
    CHARGE:  cpu time    9.6368: real time    9.6480
    MIXING:  cpu time    0.2636: real time    0.2701
    --------------------------------------------
      LOOP:  cpu time   36.9149: real time   36.9806

 eigenvalue-minimisations  :    96
 total energy-change (2. order) : 0.2731156E-02  (-0.1470495E-02)
 number of electron      16.0000000 magnetization 
 augmentation part        1.3378842 magnetization 

 Broyden mixing:
  rms(total) = 0.22034E-01    rms(broyden)= 0.22034E-01
  rms(prec ) = 0.22727E-01
  weight for this iteration     100.00

 eigenvalues of (default mixing * dielectric matrix)
  average eigenvalue GAMMA=   1.4699
  2.4416  0.9905  1.2236  1.2236

 Free energy of the ion-electron system (eV)
  ---------------------------------------------------
  alpha Z        PSCENC =         0.02494874
  Ewald energy   TEWEN  =       662.91093129
  -Hartree energ DENC   =     -1507.49433174
  -exchange      EXHF   =         0.00000000
  -V(xc)+E(xc)   XCENC  =        69.75824850
  PAW double counting   =      1552.81889714    -1557.30671470
  entropy T*S    EENTRO =        -0.00000000
  eigenvalues    EBANDS =      -255.60385403
  atomic energy  EATOM  =      1011.90834462
  Solvation  Ediel_sol  =         0.00000000
  ---------------------------------------------------
  free energy    TOTEN  =       -22.98353019 eV

  energy without entropy =      -22.98353019  energy(sigma->0) =      -22.98353019


--------------------------------------------------------------------------------------------------------




--------------------------------------- Iteration      1(  10)  ---------------------------------------


    POTLOK:  cpu time   12.6066: real time   12.6274
    SETDIJ:  cpu time    0.0400: real time    0.0400
     EDDAV:  cpu time   10.8095: real time   10.8319
       DOS:  cpu time    0.0123: real time    0.0123
    CHARGE:  cpu time    9.7121: real time    9.7242
    MIXING:  cpu time    0.2696: real time    0.2700
    --------------------------------------------
      LOOP:  cpu time   33.4500: real time   33.5058

 eigenvalue-minimisations  :    64
 total energy-change (2. order) :-0.1808981E-02  (-0.2569581E-03)
 number of electron      16.0000000 magnetization 
 augmentation part        1.3397404 magnetization 

 Broyden mixing:
  rms(total) = 0.60385E-02    rms(broyden)= 0.60385E-02
  rms(prec ) = 0.68966E-02
  weight for this iteration     100.00

 eigenvalues of (default mixing * dielectric matrix)
  average eigenvalue GAMMA=   1.5767
  2.3001  2.3001  0.9648  0.9648  1.3536

 Free energy of the ion-electron system (eV)
  ---------------------------------------------------
  alpha Z        PSCENC =         0.02494874
  Ewald energy   TEWEN  =       662.91093129
  -Hartree energ DENC   =     -1507.23866237
  -exchange      EXHF   =         0.00000000
  -V(xc)+E(xc)   XCENC  =        69.73420911
  PAW double counting   =      1557.27675810    -1561.74384838
  entropy T*S    EENTRO =        -0.00000000
  eigenvalues    EBANDS =      -255.85802027
  atomic energy  EATOM  =      1011.90834462
  Solvation  Ediel_sol  =         0.00000000
  ---------------------------------------------------
  free energy    TOTEN  =       -22.98533917 eV

  energy without entropy =      -22.98533917  energy(sigma->0) =      -22.98533917


--------------------------------------------------------------------------------------------------------




--------------------------------------- Iteration      1(  11)  ---------------------------------------


    POTLOK:  cpu time   12.6746: real time   12.6948
    SETDIJ:  cpu time    0.0401: real time    0.0401
     EDDAV:  cpu time   14.2219: real time   14.2481
       DOS:  cpu time    0.0240: real time    0.0240
    CHARGE:  cpu time    9.6855: real time    9.6972
    MIXING:  cpu time    0.2759: real time    0.2764
    --------------------------------------------
      LOOP:  cpu time   36.9219: real time   36.9806

 eigenvalue-minimisations  :    96
 total energy-change (2. order) :-0.2666856E-02  (-0.4532434E-04)
 number of electron      16.0000000 magnetization 
 augmentation part        1.3392562 magnetization 

 Broyden mixing:
  rms(total) = 0.26145E-02    rms(broyden)= 0.26145E-02
  rms(prec ) = 0.33175E-02
  weight for this iteration     100.00

 eigenvalues of (default mixing * dielectric matrix)
  average eigenvalue GAMMA=   1.6465
  2.9868  2.4016  1.5201  1.0891  0.9407  0.9407

 Free energy of the ion-electron system (eV)
  ---------------------------------------------------
  alpha Z        PSCENC =         0.02494874
  Ewald energy   TEWEN  =       662.91093129
  -Hartree energ DENC   =     -1507.52994751
  -exchange      EXHF   =         0.00000000
  -V(xc)+E(xc)   XCENC  =        69.73857049
  PAW double counting   =      1556.01559879    -1560.47636690
  entropy T*S    EENTRO =        -0.00000000
  eigenvalues    EBANDS =      -255.58008555
  atomic energy  EATOM  =      1011.90834462
  Solvation  Ediel_sol  =         0.00000000
  ---------------------------------------------------
  free energy    TOTEN  =       -22.98800602 eV

  energy without entropy =      -22.98800602  energy(sigma->0) =      -22.98800602


--------------------------------------------------------------------------------------------------------




--------------------------------------- Iteration      1(  12)  ---------------------------------------


    POTLOK:  cpu time   12.6285: real time   12.6553
    SETDIJ:  cpu time    0.0399: real time    0.0399
     EDDAV:  cpu time   10.8242: real time   10.8492
       DOS:  cpu time    0.0099: real time    0.0099
    CHARGE:  cpu time    9.6728: real time    9.6842
    MIXING:  cpu time    0.2865: real time    0.2870
    --------------------------------------------
      LOOP:  cpu time   33.4618: real time   33.5255

 eigenvalue-minimisations  :    64
 total energy-change (2. order) :-0.1813356E-02  (-0.2104749E-04)
 number of electron      16.0000000 magnetization 
 augmentation part        1.3392501 magnetization 

 Broyden mixing:
  rms(total) = 0.14875E-02    rms(broyden)= 0.14875E-02
  rms(prec ) = 0.19641E-02
  weight for this iteration     100.00

 eigenvalues of (default mixing * dielectric matrix)
  average eigenvalue GAMMA=   1.8680
  3.9908  2.5089  2.1263  1.5764  0.9505  0.9505  0.9725

 Free energy of the ion-electron system (eV)
  ---------------------------------------------------
  alpha Z        PSCENC =         0.02494874
  Ewald energy   TEWEN  =       662.91093129
  -Hartree energ DENC   =     -1507.83864195
  -exchange      EXHF   =         0.00000000
  -V(xc)+E(xc)   XCENC  =        69.74579277
  PAW double counting   =      1557.22915635    -1561.68817902
  entropy T*S    EENTRO =        -0.00000000
  eigenvalues    EBANDS =      -255.28217218
  atomic energy  EATOM  =      1011.90834462
  Solvation  Ediel_sol  =         0.00000000
  ---------------------------------------------------
  free energy    TOTEN  =       -22.98981938 eV

  energy without entropy =      -22.98981938  energy(sigma->0) =      -22.98981938


--------------------------------------------------------------------------------------------------------




--------------------------------------- Iteration      1(  13)  ---------------------------------------


    POTLOK:  cpu time   12.5858: real time   12.6093
    SETDIJ:  cpu time    0.0400: real time    0.0400
     EDDAV:  cpu time   14.2645: real time   14.2949
       DOS:  cpu time    0.0082: real time    0.0082
    CHARGE:  cpu time    9.6610: real time    9.6791
    MIXING:  cpu time    0.3062: real time    0.3067
    --------------------------------------------
      LOOP:  cpu time   36.8657: real time   36.9383

 eigenvalue-minimisations  :    96
 total energy-change (2. order) :-0.1911542E-02  (-0.2467648E-04)
 number of electron      16.0000000 magnetization 
 augmentation part        1.3391825 magnetization 

 Broyden mixing:
  rms(total) = 0.61999E-03    rms(broyden)= 0.61999E-03
  rms(prec ) = 0.88225E-03
  weight for this iteration     100.00

 eigenvalues of (default mixing * dielectric matrix)
  average eigenvalue GAMMA=   1.9686
  4.7458  2.7865  2.4048  0.9468  0.9468  0.9629  1.4778  1.4778

 Free energy of the ion-electron system (eV)
  ---------------------------------------------------
  alpha Z        PSCENC =         0.02494874
  Ewald energy   TEWEN  =       662.91093129
  -Hartree energ DENC   =     -1508.05141915
  -exchange      EXHF   =         0.00000000
  -V(xc)+E(xc)   XCENC  =        69.74747053
  PAW double counting   =      1556.21004656    -1560.67098428
  entropy T*S    EENTRO =        -0.00000000
  eigenvalues    EBANDS =      -255.07106922
  atomic energy  EATOM  =      1011.90834462
  Solvation  Ediel_sol  =         0.00000000
  ---------------------------------------------------
  free energy    TOTEN  =       -22.99173092 eV

  energy without entropy =      -22.99173092  energy(sigma->0) =      -22.99173092


--------------------------------------------------------------------------------------------------------




--------------------------------------- Iteration      1(  14)  ---------------------------------------


    POTLOK:  cpu time   12.6609: real time   12.6816
    SETDIJ:  cpu time    0.0399: real time    0.0399
     EDDAV:  cpu time   17.7199: real time   17.7595
       DOS:  cpu time    0.0088: real time    0.0088
    CHARGE:  cpu time    9.6310: real time    9.6469
    MIXING:  cpu time    0.2954: real time    0.2959
    --------------------------------------------
      LOOP:  cpu time   40.3559: real time   40.4328

 eigenvalue-minimisations  :   128
 total energy-change (2. order) :-0.6663331E-03  (-0.4639130E-05)
 number of electron      16.0000000 magnetization 
 augmentation part        1.3391759 magnetization 

 Broyden mixing:
  rms(total) = 0.44773E-03    rms(broyden)= 0.44773E-03
  rms(prec ) = 0.58091E-03
  weight for this iteration     100.00

 eigenvalues of (default mixing * dielectric matrix)
  average eigenvalue GAMMA=   2.1768
  6.0425  3.3314  2.5048  2.1964  1.6053  0.9495  0.9495  1.0474  0.9644

 Free energy of the ion-electron system (eV)
  ---------------------------------------------------
  alpha Z        PSCENC =         0.02494874
  Ewald energy   TEWEN  =       662.91093129
  -Hartree energ DENC   =     -1508.10320763
  -exchange      EXHF   =         0.00000000
  -V(xc)+E(xc)   XCENC  =        69.74668715
  PAW double counting   =      1556.36997550    -1560.83086974
  entropy T*S    EENTRO =        -0.00000000
  eigenvalues    EBANDS =      -255.01920719
  atomic energy  EATOM  =      1011.90834462
  Solvation  Ediel_sol  =         0.00000000
  ---------------------------------------------------
  free energy    TOTEN  =       -22.99239725 eV

  energy without entropy =      -22.99239725  energy(sigma->0) =      -22.99239725


--------------------------------------------------------------------------------------------------------




--------------------------------------- Iteration      1(  15)  ---------------------------------------


    POTLOK:  cpu time   12.6220: real time   12.6430
    SETDIJ:  cpu time    0.0400: real time    0.0400
     EDDAV:  cpu time   14.2149: real time   14.2543
       DOS:  cpu time    0.0099: real time    0.0099
    CHARGE:  cpu time    9.7106: real time    9.7277
    MIXING:  cpu time    0.3131: real time    0.3137
    --------------------------------------------
      LOOP:  cpu time   36.9105: real time   36.9887

 eigenvalue-minimisations  :    96
 total energy-change (2. order) :-0.5209739E-03  (-0.2329801E-05)
 number of electron      16.0000000 magnetization 
 augmentation part        1.3391404 magnetization 

 Broyden mixing:
  rms(total) = 0.19474E-03    rms(broyden)= 0.19474E-03
  rms(prec ) = 0.26142E-03
  weight for this iteration     100.00

 eigenvalues of (default mixing * dielectric matrix)
  average eigenvalue GAMMA=   2.2621
  6.6812  3.7829  2.4898  2.4898  1.6434  1.6434  0.9519  0.9519  0.9829  1.0038

 Free energy of the ion-electron system (eV)
  ---------------------------------------------------
  alpha Z        PSCENC =         0.02494874
  Ewald energy   TEWEN  =       662.91093129
  -Hartree energ DENC   =     -1508.13142319
  -exchange      EXHF   =         0.00000000
  -V(xc)+E(xc)   XCENC  =        69.74599452
  PAW double counting   =      1556.57778357    -1561.03772869
  entropy T*S    EENTRO =        -0.00000000
  eigenvalues    EBANDS =      -254.99176910
  atomic energy  EATOM  =      1011.90834462
  Solvation  Ediel_sol  =         0.00000000
  ---------------------------------------------------
  free energy    TOTEN  =       -22.99291823 eV

  energy without entropy =      -22.99291823  energy(sigma->0) =      -22.99291823


--------------------------------------------------------------------------------------------------------




--------------------------------------- Iteration      1(  16)  ---------------------------------------


    POTLOK:  cpu time   12.6787: real time   12.6990
    SETDIJ:  cpu time    0.0402: real time    0.0402
     EDDAV:  cpu time   17.7305: real time   17.7719
       DOS:  cpu time    0.0046: real time    0.0046
    CHARGE:  cpu time    9.6442: real time    9.6647
    MIXING:  cpu time    0.3292: real time    0.3298
    --------------------------------------------
      LOOP:  cpu time   40.4274: real time   40.5102

 eigenvalue-minimisations  :   128
 total energy-change (2. order) :-0.2151995E-03  (-0.5803809E-06)
 number of electron      16.0000000 magnetization 
 augmentation part        1.3391309 magnetization 

 Broyden mixing:
  rms(total) = 0.15038E-03    rms(broyden)= 0.15038E-03
  rms(prec ) = 0.17653E-03
  weight for this iteration     100.00

 eigenvalues of (default mixing * dielectric matrix)
  average eigenvalue GAMMA=   2.4335
  7.9053  4.5002  3.0880  2.4753  2.2416  1.6081  0.9493  0.9493  0.9705  1.0405
  1.0405

 Free energy of the ion-electron system (eV)
  ---------------------------------------------------
  alpha Z        PSCENC =         0.02494874
  Ewald energy   TEWEN  =       662.91093129
  -Hartree energ DENC   =     -1508.13571610
  -exchange      EXHF   =         0.00000000
  -V(xc)+E(xc)   XCENC  =        69.74558072
  PAW double counting   =      1556.45509190    -1560.91512342
  entropy T*S    EENTRO =        -0.00000000
  eigenvalues    EBANDS =      -254.98719118
  atomic energy  EATOM  =      1011.90834462
  Solvation  Ediel_sol  =         0.00000000
  ---------------------------------------------------
  free energy    TOTEN  =       -22.99313343 eV

  energy without entropy =      -22.99313343  energy(sigma->0) =      -22.99313343


--------------------------------------------------------------------------------------------------------




--------------------------------------- Iteration      1(  17)  ---------------------------------------


    POTLOK:  cpu time   12.5961: real time   12.6222
    SETDIJ:  cpu time    0.0399: real time    0.0399
     EDDAV:  cpu time   14.2615: real time   14.2905
       DOS:  cpu time    0.0033: real time    0.0033
    CHARGE:  cpu time    9.6607: real time    9.6797
    MIXING:  cpu time    0.3289: real time    0.3294
    --------------------------------------------
      LOOP:  cpu time   36.8904: real time   36.9651

 eigenvalue-minimisations  :    96
 total energy-change (2. order) :-0.9763718E-04  (-0.1791537E-06)
 number of electron      16.0000000 magnetization 
 augmentation part        1.3391484 magnetization 

 Broyden mixing:
  rms(total) = 0.66828E-04    rms(broyden)= 0.66828E-04
  rms(prec ) = 0.80042E-04
  weight for this iteration     100.00

 eigenvalues of (default mixing * dielectric matrix)
  average eigenvalue GAMMA=   2.6027
  8.4255  5.1900  3.3278  2.9417  2.5440  2.2419  1.6197  0.9489  0.9489  0.9585
  1.0426  1.0426

 Free energy of the ion-electron system (eV)
  ---------------------------------------------------
  alpha Z        PSCENC =         0.02494874
  Ewald energy   TEWEN  =       662.91093129
  -Hartree energ DENC   =     -1508.14019520
  -exchange      EXHF   =         0.00000000
  -V(xc)+E(xc)   XCENC  =        69.74544036
  PAW double counting   =      1556.42081512    -1560.88111686
  entropy T*S    EENTRO =        -0.00000000
  eigenvalues    EBANDS =      -254.98239913
  atomic energy  EATOM  =      1011.90834462
  Solvation  Ediel_sol  =         0.00000000
  ---------------------------------------------------
  free energy    TOTEN  =       -22.99323106 eV

  energy without entropy =      -22.99323106  energy(sigma->0) =      -22.99323106


--------------------------------------------------------------------------------------------------------




--------------------------------------- Iteration      1(  18)  ---------------------------------------


    POTLOK:  cpu time   12.6557: real time   12.6815
    SETDIJ:  cpu time    0.0399: real time    0.0400
     EDDAV:  cpu time   17.7246: real time   17.7707
       DOS:  cpu time    0.0008: real time    0.0008
    CHARGE:  cpu time    9.6684: real time    9.6869
    MIXING:  cpu time    0.3295: real time    0.3301
    --------------------------------------------
      LOOP:  cpu time   40.4189: real time   40.5100

 eigenvalue-minimisations  :   128
 total energy-change (2. order) :-0.5279864E-04  (-0.5285250E-07)
 number of electron      16.0000000 magnetization 
 augmentation part        1.3391307 magnetization 

 Broyden mixing:
  rms(total) = 0.73554E-04    rms(broyden)= 0.73554E-04
  rms(prec ) = 0.76697E-04
  weight for this iteration     100.00

 eigenvalues of (default mixing * dielectric matrix)
  average eigenvalue GAMMA=   2.5421
  8.8487  5.4502  3.7144  2.8424  2.4563  2.1965  1.6014  0.9485  0.9485  0.9479
  1.0150  1.0387  1.0387

 Free energy of the ion-electron system (eV)
  ---------------------------------------------------
  alpha Z        PSCENC =         0.02494874
  Ewald energy   TEWEN  =       662.91093129
  -Hartree energ DENC   =     -1508.14662627
  -exchange      EXHF   =         0.00000000
  -V(xc)+E(xc)   XCENC  =        69.74563505
  PAW double counting   =      1556.47279363    -1560.93300526
  entropy T*S    EENTRO =        -0.00000000
  eigenvalues    EBANDS =      -254.97630567
  atomic energy  EATOM  =      1011.90834462
  Solvation  Ediel_sol  =         0.00000000
  ---------------------------------------------------
  free energy    TOTEN  =       -22.99328386 eV

  energy without entropy =      -22.99328386  energy(sigma->0) =      -22.99328386


--------------------------------------------------------------------------------------------------------




--------------------------------------- Iteration      1(  19)  ---------------------------------------


    POTLOK:  cpu time   12.5959: real time   12.6174
    SETDIJ:  cpu time    0.0399: real time    0.0399
     EDDAV:  cpu time   17.6653: real time   17.6987
       DOS:  cpu time    0.0072: real time    0.0072
    CHARGE:  cpu time    9.6423: real time    9.6542
    MIXING:  cpu time    0.3928: real time    0.3935
    --------------------------------------------
      LOOP:  cpu time   40.3433: real time   40.4109

 eigenvalue-minimisations  :   128
 total energy-change (2. order) :-0.6598202E-05  (-0.1233364E-07)
 number of electron      16.0000000 magnetization 
 augmentation part        1.3391415 magnetization 

 Broyden mixing:
  rms(total) = 0.17251E-04    rms(broyden)= 0.17251E-04
  rms(prec ) = 0.20798E-04
  weight for this iteration     100.00

 eigenvalues of (default mixing * dielectric matrix)
  average eigenvalue GAMMA=   2.6791
  9.3387  6.0119  4.2252  3.0338  2.5843  2.5843  2.2543  1.6056  0.9489  0.9489
  1.0317  1.0031  1.0031  0.9337

 Free energy of the ion-electron system (eV)
  ---------------------------------------------------
  alpha Z        PSCENC =         0.02494874
  Ewald energy   TEWEN  =       662.91093129
  -Hartree energ DENC   =     -1508.14362557
  -exchange      EXHF   =         0.00000000
  -V(xc)+E(xc)   XCENC  =        69.74544590
  PAW double counting   =      1556.46354398    -1560.92375007
  entropy T*S    EENTRO =        -0.00000000
  eigenvalues    EBANDS =      -254.97912935
  atomic energy  EATOM  =      1011.90834462
  Solvation  Ediel_sol  =         0.00000000
  ---------------------------------------------------
  free energy    TOTEN  =       -22.99329046 eV

  energy without entropy =      -22.99329046  energy(sigma->0) =      -22.99329046


--------------------------------------------------------------------------------------------------------




--------------------------------------- Iteration      1(  20)  ---------------------------------------


    POTLOK:  cpu time   12.6267: real time   12.6498
    SETDIJ:  cpu time    0.0400: real time    0.0400
     EDDAV:  cpu time   14.2834: real time   14.3142
       DOS:  cpu time    0.0125: real time    0.0125
    CHARGE:  cpu time    9.6637: real time    9.6884
    MIXING:  cpu time    0.3754: real time    0.3761
    --------------------------------------------
      LOOP:  cpu time   37.0016: real time   37.0810

 eigenvalue-minimisations  :    96
 total energy-change (2. order) :-0.1064691E-04  (-0.6584948E-08)
 number of electron      16.0000000 magnetization 
 augmentation part        1.3391415 magnetization 

 Broyden mixing:
  rms(total) = 0.10823E-04    rms(broyden)= 0.10823E-04
  rms(prec ) = 0.11880E-04
  weight for this iteration     100.00

 eigenvalues of (default mixing * dielectric matrix)
  average eigenvalue GAMMA=   2.6307
  9.4774  6.2418  4.4445  3.3114  2.6342  2.4170  2.1636  1.5898  1.2760  0.9491
  0.9491  1.0979  0.9979  0.9866  0.9235

 Free energy of the ion-electron system (eV)
  ---------------------------------------------------
  alpha Z        PSCENC =         0.02494874
  Ewald energy   TEWEN  =       662.91093129
  -Hartree energ DENC   =     -1508.14366685
  -exchange      EXHF   =         0.00000000
  -V(xc)+E(xc)   XCENC  =        69.74542288
  PAW double counting   =      1556.45146470    -1560.91166772
  entropy T*S    EENTRO =        -0.00000000
  eigenvalues    EBANDS =      -254.97907876
  atomic energy  EATOM  =      1011.90834462
  Solvation  Ediel_sol  =         0.00000000
  ---------------------------------------------------
  free energy    TOTEN  =       -22.99330111 eV

  energy without entropy =      -22.99330111  energy(sigma->0) =      -22.99330111


--------------------------------------------------------------------------------------------------------




--------------------------------------- Iteration      1(  21)  ---------------------------------------


    POTLOK:  cpu time   12.5705: real time   12.5992
    SETDIJ:  cpu time    0.0399: real time    0.0399
     EDDAV:  cpu time   17.6824: real time   17.7293
       DOS:  cpu time    0.0086: real time    0.0086
    CHARGE:  cpu time    9.6592: real time    9.6735
    MIXING:  cpu time    0.3987: real time    0.3993
    --------------------------------------------
      LOOP:  cpu time   40.3593: real time   40.4499

 eigenvalue-minimisations  :   128
 total energy-change (2. order) :-0.1754176E-05  (-0.4094378E-08)
 number of electron      16.0000000 magnetization 
 augmentation part        1.3391399 magnetization 

 Broyden mixing:
  rms(total) = 0.74044E-05    rms(broyden)= 0.74044E-05
  rms(prec ) = 0.80525E-05
  weight for this iteration     100.00

 eigenvalues of (default mixing * dielectric matrix)
  average eigenvalue GAMMA=   2.7518
  9.6787  6.8170  4.9860  3.8045  3.0565  2.4861  2.4391  2.2741  1.5987  0.9487
  0.9487  1.0446  1.0200  1.0200  0.9390  0.9679

 Free energy of the ion-electron system (eV)
  ---------------------------------------------------
  alpha Z        PSCENC =         0.02494874
  Ewald energy   TEWEN  =       662.91093129
  -Hartree energ DENC   =     -1508.14441499
  -exchange      EXHF   =         0.00000000
  -V(xc)+E(xc)   XCENC  =        69.74545646
  PAW double counting   =      1556.45403571    -1560.91423489
  entropy T*S    EENTRO =        -0.00000000
  eigenvalues    EBANDS =      -254.97836981
  atomic energy  EATOM  =      1011.90834462
  Solvation  Ediel_sol  =         0.00000000
  ---------------------------------------------------
  free energy    TOTEN  =       -22.99330286 eV

  energy without entropy =      -22.99330286  energy(sigma->0) =      -22.99330286


--------------------------------------------------------------------------------------------------------




--------------------------------------- Iteration      1(  22)  ---------------------------------------


    POTLOK:  cpu time   12.5584: real time   12.5790
    SETDIJ:  cpu time    0.0400: real time    0.0400
     EDDAV:  cpu time   10.8188: real time   10.8433
       DOS:  cpu time    0.0019: real time    0.0019
    CHARGE:  cpu time    9.7008: real time    9.7125
    MIXING:  cpu time    0.4062: real time    0.4070
    --------------------------------------------
      LOOP:  cpu time   33.5260: real time   33.5836

 eigenvalue-minimisations  :    64
 total energy-change (2. order) :-0.2029017E-05  (-0.2865264E-08)
 number of electron      16.0000000 magnetization 
 augmentation part        1.3391407 magnetization 

 Broyden mixing:
  rms(total) = 0.16490E-05    rms(broyden)= 0.16489E-05
  rms(prec ) = 0.19811E-05
  weight for this iteration     100.00

 eigenvalues of (default mixing * dielectric matrix)
  average eigenvalue GAMMA=   2.7019
  9.7214  6.9091  5.0728  3.8642  3.0532  2.5372  2.4334  2.0300  1.8047  1.5954
  0.9486  0.9486  1.0800  1.0063  1.0063  0.9514  0.9704

 Free energy of the ion-electron system (eV)
  ---------------------------------------------------
  alpha Z        PSCENC =         0.02494874
  Ewald energy   TEWEN  =       662.91093129
  -Hartree energ DENC   =     -1508.14422709
  -exchange      EXHF   =         0.00000000
  -V(xc)+E(xc)   XCENC  =        69.74544392
  PAW double counting   =      1556.45473251    -1560.91494227
  entropy T*S    EENTRO =        -0.00000000
  eigenvalues    EBANDS =      -254.97853661
  atomic energy  EATOM  =      1011.90834462
  Solvation  Ediel_sol  =         0.00000000
  ---------------------------------------------------
  free energy    TOTEN  =       -22.99330489 eV

  energy without entropy =      -22.99330489  energy(sigma->0) =      -22.99330489


--------------------------------------------------------------------------------------------------------




--------------------------------------- Iteration      1(  23)  ---------------------------------------


    POTLOK:  cpu time   12.6009: real time   12.6291
    SETDIJ:  cpu time    0.0399: real time    0.0399
     EDDAV:  cpu time   17.7761: real time   17.8189
       DOS:  cpu time    0.0069: real time    0.0069
    CHARGE:  cpu time    9.6557: real time    9.6711
    MIXING:  cpu time    0.4107: real time    0.4115
    --------------------------------------------
      LOOP:  cpu time   40.4903: real time   40.5774

 eigenvalue-minimisations  :   128
 total energy-change (2. order) :-0.2874253E-06  (-0.2181430E-08)
 number of electron      16.0000000 magnetization 
 augmentation part        1.3391409 magnetization 

 Broyden mixing:
  rms(total) = 0.22416E-05    rms(broyden)= 0.22416E-05
  rms(prec ) = 0.23871E-05
  weight for this iteration     100.00

 eigenvalues of (default mixing * dielectric matrix)
  average eigenvalue GAMMA=   2.7649
  9.8042  7.2772  5.5119  4.3010  3.3987  2.9232  2.4618  2.3202  2.2779  1.5984
  0.9487  0.9487  1.0260  1.0260  0.9519  0.9932  0.9998  0.9998

 Free energy of the ion-electron system (eV)
  ---------------------------------------------------
  alpha Z        PSCENC =         0.02494874
  Ewald energy   TEWEN  =       662.91093129
  -Hartree energ DENC   =     -1508.14417371
  -exchange      EXHF   =         0.00000000
  -V(xc)+E(xc)   XCENC  =        69.74544147
  PAW double counting   =      1556.45418317    -1560.91439437
  entropy T*S    EENTRO =        -0.00000000
  eigenvalues    EBANDS =      -254.97858639
  atomic energy  EATOM  =      1011.90834462
  Solvation  Ediel_sol  =         0.00000000
  ---------------------------------------------------
  free energy    TOTEN  =       -22.99330518 eV

  energy without entropy =      -22.99330518  energy(sigma->0) =      -22.99330518


--------------------------------------------------------------------------------------------------------




--------------------------------------- Iteration      1(  24)  ---------------------------------------


    POTLOK:  cpu time   12.6448: real time   12.6697
    SETDIJ:  cpu time    0.0399: real time    0.0399
     EDDAV:  cpu time   10.8599: real time   10.8807
       DOS:  cpu time    0.0205: real time    0.0206
    CHARGE:  cpu time    9.6795: real time    9.6909
    MIXING:  cpu time    0.4411: real time    0.4419
    --------------------------------------------
      LOOP:  cpu time   33.6856: real time   33.7437

 eigenvalue-minimisations  :    64
 total energy-change (2. order) :-0.3158998E-06  (-0.1772317E-08)
 number of electron      16.0000000 magnetization 
 augmentation part        1.3391406 magnetization 

 Broyden mixing:
  rms(total) = 0.67201E-06    rms(broyden)= 0.67201E-06
  rms(prec ) = 0.74526E-06
  weight for this iteration     100.00

 eigenvalues of (default mixing * dielectric matrix)
  average eigenvalue GAMMA=   2.7721
  9.8175  7.4750  5.6858  4.5115  3.5591  3.0468  2.5912  2.4689  2.2165  1.7663
  1.5934  0.9487  0.9487  1.0875  1.0188  1.0188  0.9845  0.9845  0.9453

 Free energy of the ion-electron system (eV)
  ---------------------------------------------------
  alpha Z        PSCENC =         0.02494874
  Ewald energy   TEWEN  =       662.91093129
  -Hartree energ DENC   =     -1508.14417331
  -exchange      EXHF   =         0.00000000
  -V(xc)+E(xc)   XCENC  =        69.74544202
  PAW double counting   =      1556.45503564    -1560.91524158
  entropy T*S    EENTRO =        -0.00000000
  eigenvalues    EBANDS =      -254.97859291
  atomic energy  EATOM  =      1011.90834462
  Solvation  Ediel_sol  =         0.00000000
  ---------------------------------------------------
  free energy    TOTEN  =       -22.99330549 eV

  energy without entropy =      -22.99330549  energy(sigma->0) =      -22.99330549


--------------------------------------------------------------------------------------------------------




--------------------------------------- Iteration      1(  25)  ---------------------------------------


    POTLOK:  cpu time   12.6143: real time   12.6349
    SETDIJ:  cpu time    0.0399: real time    0.0399
     EDDAV:  cpu time   17.6226: real time   17.6605
       DOS:  cpu time    0.0122: real time    0.0122
    --------------------------------------------
      LOOP:  cpu time   30.2890: real time   30.3475

 eigenvalue-minimisations  :   128
 total energy-change (2. order) :-0.8285429E-07  (-0.1517535E-08)
 number of electron      16.0000000 magnetization 
 augmentation part        1.3391406 magnetization 

 Free energy of the ion-electron system (eV)
  ---------------------------------------------------
  alpha Z        PSCENC =         0.02494874
  Ewald energy   TEWEN  =       662.91093129
  -Hartree energ DENC   =     -1508.14415711
  -exchange      EXHF   =         0.00000000
  -V(xc)+E(xc)   XCENC  =        69.74544136
  PAW double counting   =      1556.45478947    -1560.91499588
  entropy T*S    EENTRO =        -0.00000000
  eigenvalues    EBANDS =      -254.97860806
  atomic energy  EATOM  =      1011.90834462
  Solvation  Ediel_sol  =         0.00000000
  ---------------------------------------------------
  free energy    TOTEN  =       -22.99330558 eV

  energy without entropy =      -22.99330558  energy(sigma->0) =      -22.99330558


--------------------------------------------------------------------------------------------------------




 average (electrostatic) potential at core
  the test charge radii are     0.6991  0.7215
  (the norm of the test charge is              1.0000)
       1 -63.6943       2 -82.7106       3 -82.7106
 
 
 
 E-fermi :  -8.9965     XC(G=0):  -0.0256     alpha+bet : -0.0058


 k-point     1 :       0.0000    0.0000    0.0000
  band No.  band energies     occupation 
      1     -29.2449      2.00000
      2     -28.2375      2.00000
      3     -13.7735      2.00000
      4     -12.7114      2.00000
      5     -12.7114      2.00000
      6     -12.6196      2.00000
      7      -9.0955      2.00000
      8      -9.0955      2.00000
      9      -1.0041      0.00000
     10      -0.5249      0.00000
     11      -0.5249      0.00000
     12       0.0017      0.00000
     13       0.1140      0.00000
     14       0.1140      0.00000
     15       0.1162      0.00000
     16       0.1186      0.00000
     17       0.1193      0.00000
     18       0.1414      0.00000
     19       0.2222      0.00000
     20       0.2222      0.00000
     21       0.2285      0.00000
     22       0.2407      0.00000
     23       0.2414      0.00000
     24       0.2420      0.00000
     25       0.2423      0.00000
     26       0.2423      0.00000
     27       0.2423      0.00000
     28       0.2423      0.00000
     29       0.2423      0.00000
     30       0.2879      0.00000
     31       0.3472      0.00000
     32       0.3472      0.00000


--------------------------------------------------------------------------------------------------------


 soft charge-density along one line, spin component            1
         0         1         2         3         4         5         6         7         8         9
 total charge-density along one line
 
 pseudopotential strength for first ion, spin component:            1
 10.555  14.045  -0.000   0.000  -0.000   0.000  -0.000   0.000
 14.045  18.687  -0.000   0.000  -0.000   0.000  -0.000   0.000
 -0.000  -0.000  -4.616   0.001  -0.000   9.032  -0.001   0.000
  0.000   0.000   0.001  -4.690   0.001  -0.001   9.156  -0.002
 -0.000  -0.000  -0.000   0.001  -4.616   0.000  -0.002   9.032
  0.000   0.000   9.032  -0.001   0.000 -19.825   0.002  -0.000
 -0.000  -0.000  -0.001   9.156  -0.002   0.002 -20.031   0.003
  0.000   0.000   0.000  -0.002   9.032  -0.000   0.003 -19.825
 total augmentation occupancy for first ion, spin component:            1
 11.138  -5.617   0.000   0.000   0.000   0.000   0.000   0.000
 -5.617   3.041   0.000   0.000   0.000   0.000   0.000   0.000
  0.000   0.000   1.239  -0.010   0.000   0.083  -0.002   0.000
  0.000   0.000  -0.010   2.593  -0.018  -0.002   0.330  -0.003
  0.000   0.000   0.000  -0.018   1.239   0.000  -0.003   0.083
  0.000   0.000   0.083  -0.002   0.000   0.006  -0.000   0.000
  0.000   0.000  -0.002   0.330  -0.003  -0.000   0.051  -0.001
  0.000   0.000   0.000  -0.003   0.083   0.000  -0.001   0.006


------------------------ aborting loop because EDIFF is reached ----------------------------------------



 DIPCOR: dipole corrections for dipol
 direction  1 min pos   404, direction  2 min pos   434, direction  3 min pos   440,
 dipolmoment          -0.000004      0.000001      0.000002 electrons x Angstroem
 Tr[quadrupol]         7.870388

 energy correction for charged system         0.000000 eV
 dipol+quadrupol energy correction            0.000000 eV
 added-field ion interaction          0.000000 eV  (added to PSCEN)

 
  *************** adding dipol energy to TOTEN NOW **************** 
    CHARGE:  cpu time    9.6307: real time    9.6424
    FORLOC:  cpu time    0.3276: real time    0.3281
    FORNL :  cpu time    0.3010: real time    0.3016
    STRESS:  cpu time    8.9563: real time    8.9794
    FORCOR:  cpu time   10.8636: real time   10.8819
    FORHAR:  cpu time    3.0904: real time    3.0962
    MIXING:  cpu time    0.4555: real time    0.4564
    OFIELD:  cpu time    0.0000: real time    0.0000

  Hirshfeld charges:
            ion         q(e)     
   ------------------------------
      1     C           0.293
      2     O          -0.147
      3     O          -0.147

  Hirshfeld-I charges:
            ion         q(e)        dq(e)    
   ------------------------------------------
      1     C           0.841     -0.467E-04
      2     O          -0.420      0.233E-04
      3     O          -0.420      0.233E-04

   Hirshfeld-I converged in  15 cycles. Convergence criterion |dq|< 0.500E-04 e

  Atomic reference data used in the T-S method for vdW correction:
            C6at              R0at           ALPHAat      REFSTATE
            (au)              (au)            (au)                
   ---------------------------------------------------------------
   C          46.600          3.590         12.000         0
   O          15.600          3.194          5.400         0

  Tkatchenko/Scheffler method for vdW energy calculation
  ---------------------------------------------------------------------------------------------

  Parameters of vdW forcefield:
            C6ts              R0ts           ALPHAts        RELVOL
            (au)              (au)            (au)                
   ---------------------------------------------------------------
   C           9.103          2.735          5.304          0.44197788
   O          18.477          3.285          5.877          1.08832068
   O          18.478          3.285          5.877          1.08833227

  vdW correction parametrized for the method pbe       

  IVDW =  21
  VDW_RADIUS =    50.000 A
  VDW_IDAMPF =  0
  VDW_S6 =     1.000
  VDW_SR =     0.950
  VDW_D =    20.000
  LVDW_ONECELL = F F F
  LVDW_SAMETYPE T T
  LVDW_EWALD = F

  Number of pair interactions contributing to vdW energy:      99
  Edisp (eV):   -0.00022
    FORVDW:  cpu time   47.1143: real time   47.1490

  FORCE on cell =-STRESS in cart. coord.  units (eV):
  Direction    XX          YY          ZZ          XY          YZ          ZX
  --------------------------------------------------------------------------------------
  Alpha Z     0.02495     0.02495     0.02495
  Ewald     -49.76239   -49.85357   762.52737     0.07989    -6.13699   -10.56194
  Hartree   372.72929   372.68551   762.72937     0.03830    -2.94208    -5.06341
  E(xc)     -75.17022   -75.17045   -73.06277     0.00021    -0.01594    -0.02744
  Local    -556.54815  -556.42140 -1685.66089    -0.11098     8.52550    14.67264
  n-local   -48.57442   -48.57373   -54.68315    -0.00060     0.04621     0.07953
  augment    13.28126    13.28171    10.51832    -0.00024     0.02088     0.03593
  Kinetic   344.00894   344.01622   279.06841    -0.00639     0.49126     0.84548
  Fock        0.00000     0.00000     0.00000     0.00000     0.00000     0.00000
  vdW        -0.00000    -0.00000     0.00165     0.00000    -0.00001    -0.00002
  -------------------------------------------------------------------------------------
  Total      -0.01074    -0.01077     1.46326     0.00018    -0.01117    -0.01923
  in kB      -0.00040    -0.00040     0.05468     0.00001    -0.00042    -0.00072
  external pressure =        0.02 kB  Pullay stress =        0.00 kB


 VOLUME and BASIS-vectors are now :
 -----------------------------------------------------------------------------
  energy-cutoff  :     1000.00
  volume of cell :    42875.00
      direct lattice vectors                 reciprocal lattice vectors
    35.000000000  0.000000000  0.000000000     0.028571429  0.000000000  0.000000000
     0.000000000 35.000000000  0.000000000     0.000000000  0.028571429  0.000000000
     0.000000000  0.000000000 35.000000000     0.000000000  0.000000000  0.028571429

  length of vectors
    35.000000000 35.000000000 35.000000000     0.028571429  0.028571429  0.028571429


 FORCES acting on ions
    electron-ion (+dipol)            ewald-force                    non-local-force                 convergence-correction
 -----------------------------------------------------------------------------------------------
   -.999E-07 0.130E-07 0.559E-05   0.852E-08 0.478E-08 -.431E-06   0.185E-21 0.000E+00 0.000E+00   -.393E-12 -.479E-12 -.129E-11
   0.367E+01 0.213E+01 -.282E+03   -.451E+01 -.262E+01 0.347E+03   0.838E+00 0.487E+00 -.643E+02   -.169E-06 0.253E-06 0.116E-04
   -.367E+01 -.213E+01 0.282E+03   0.451E+01 0.262E+01 -.347E+03   -.838E+00 -.487E+00 0.643E+02   0.169E-06 -.253E-06 -.116E-04
 -----------------------------------------------------------------------------------------------
   0.511E-05 0.865E-05 0.575E-05   0.000E+00 0.000E+00 0.000E+00   -.111E-15 0.000E+00 0.000E+00   -.134E-11 -.199E-11 -.433E-11
 
 
 POSITION                                       TOTAL-FORCE (eV/Angst)
 -----------------------------------------------------------------------------------
     34.99851      2.72718      0.00754        -0.000000      0.000000      0.000000
     34.98327      2.71833      1.17763        -0.008297     -0.004858      0.630162
      0.01374      2.73603     33.83746         0.008297      0.004858     -0.630162
 -----------------------------------------------------------------------------------
    total drift:                                0.000005      0.000009      0.000006


--------------------------------------------------------------------------------------------------------



  FREE ENERGIE OF THE ION-ELECTRON SYSTEM (eV)
  ---------------------------------------------------
  free  energy   TOTEN  =       -22.99353047 eV

  energy  without entropy=      -22.99353047  energy(sigma->0) =      -22.99353047
 


--------------------------------------------------------------------------------------------------------


    POTLOK:  cpu time   13.4417: real time   13.4659


--------------------------------------------------------------------------------------------------------


 writing wavefunctions
     LOOP+:  cpu time 1209.8468: real time 1211.7341
    4ORBIT:  cpu time    0.0000: real time    0.0000

 total amount of memory used by VASP MPI-rank0  3934008. kBytes
=======================================================================

   base      :      30000. kBytes
   nonl-proj :     270904. kBytes
   fftplans  :     676185. kBytes
   grid      :    2932288. kBytes
   one-center:          4. kBytes
   wavefun   :      24627. kBytes
 
  
  
 General timing and accounting informations for this job:
 ========================================================
  
                  Total CPU time used (sec):     2306.700
                            User time (sec):     2154.031
                          System time (sec):      152.669
                         Elapsed time (sec):     2312.266
  
                   Maximum memory used (kb):     5339168.
                   Average memory used (kb):           0.
  
                          Minor page faults:     72199448
                          Major page faults:          960
                 Voluntary context switches:        19491
