 vasp.6.1.2 22Jul20 (build Jan  6 2021 09:55:43) gamma-only                      
 executed on             LinuxPGI date 2023.10.19  23:58:53
 running on   32 total cores
 distrk:  each k-point on   32 cores,    1 groups
 distr:  one band on NCORE=   1 cores,   32 groups


--------------------------------------------------------------------------------------------------------


 INCAR:
 POTCAR:    PAW_PBE C 08Apr2002                   
 POTCAR:    PAW_PBE O 08Apr2002                   
 -----------------------------------------------------------------------------
|                                                                             |
|           W    W    AA    RRRRR   N    N  II  N    N   GGGG   !!!           |
|           W    W   A  A   R    R  NN   N  II  NN   N  G    G  !!!           |
|           W    W  A    A  R    R  N N  N  II  N N  N  G       !!!           |
|           W WW W  AAAAAA  RRRRR   N  N N  II  N  N N  G  GGG   !            |
|           WW  WW  A    A  R   R   N   NN  II  N   NN  G    G                |
|           W    W  A    A  R    R  N    N  II  N    N   GGGG   !!!           |
|                                                                             |
|     For optimal performance we recommend to set                             |
|       NCORE = 4 - approx SQRT(number of cores).                             |
|     NCORE specifies how many cores store one orbital (NPAR=cpu/NCORE).      |
|     This setting can greatly improve the performance of VASP for DFT.       |
|     The default, NCORE=1 might be grossly inefficient on modern             |
|     multi-core architectures or massively parallel machines. Do your        |
|     own testing!!!!                                                         |
|     Unfortunately you need to use the default for GW and RPA                |
|     calculations (for HF NCORE is supported but not extensively tested      |
|     yet).                                                                   |
|                                                                             |
 -----------------------------------------------------------------------------

 POTCAR:    PAW_PBE C 08Apr2002                   
   VRHFIN =C: s2p2                                                                                  
   LEXCH  = PE                                                                                      
   EATOM  =   147.1560 eV,   10.8157 Ry                                                             
                                                                                                    
   TITEL  = PAW_PBE C 08Apr2002                                                                     
   LULTRA =        F    use ultrasoft PP ?                                                          
   IUNSCR =        1    unscreen: 0-lin 1-nonlin 2-no                                               
   RPACOR =    1.200    partial core radius                                                         
   POMASS =   12.011; ZVAL   =    4.000    mass and valenz                                          
   RCORE  =    1.500    outmost cutoff radius                                                       
   RWIGS  =    1.630; RWIGS  =    0.863    wigner-seitz radius (au A)                               
   ENMAX  =  400.000; ENMIN  =  300.000 eV                                                          
   ICORE  =        2    local potential                                                             
   LCOR   =        T    correct aug charges                                                         
   LPAW   =        T    paw PP                                                                      
   EAUG   =  644.873                                                                                
   DEXC   =    0.000                                                                                
   RMAX   =    1.529    core radius for proj-oper                                                   
   RAUG   =    1.300    factor for augmentation sphere                                              
   RDEP   =    1.501    radius for radial grids                                                     
   RDEPT  =    1.300    core radius for aug-charge                                                  
                                                                                                    
   Atomic configuration                                                                             
    4 entries                                                                                       
     n  l   j            E        occ.                                                              
     1  0  0.50      -273.3789   2.0000                                                             
     2  0  0.50       -13.7508   2.0000                                                             
     2  1  0.50        -5.2854   2.0000                                                             
     3  2  1.50        -5.4423   0.0000                                                             
   Description                                                                                      
     l       E           TYP  RCUT    TYP  RCUT                                                     
     0    -13.7508458     23  1.200                                                                 
     0     -8.2022199     23  1.200                                                                 
     1     -5.2854383     23  1.500                                                                 
     1     34.0145650     23  1.500                                                                 
     2     -5.4423304      7  1.500                                                                 
  local pseudopotential read in
  partial core-charges read in
  partial kinetic energy density read in
  atomic valenz-charges read in
  non local Contribution for L=            0  read in
    real space projection operators read in
  non local Contribution for L=            0  read in
    real space projection operators read in
  non local Contribution for L=            1  read in
    real space projection operators read in
  non local Contribution for L=            1  read in
    real space projection operators read in
    PAW grid and wavefunctions read in
 
   number of l-projection  operators is LMAX  =            4
   number of lm-projection operators is LMMAX =            8
 
 POTCAR:    PAW_PBE O 08Apr2002                   
   VRHFIN =O: s2p4                                                                                  
   LEXCH  = PE                                                                                      
   EATOM  =   432.3788 eV,   31.7789 Ry                                                             
                                                                                                    
   TITEL  = PAW_PBE O 08Apr2002                                                                     
   LULTRA =        F    use ultrasoft PP ?                                                          
   IUNSCR =        1    unscreen: 0-lin 1-nonlin 2-no                                               
   RPACOR =    1.200    partial core radius                                                         
   POMASS =   16.000; ZVAL   =    6.000    mass and valenz                                          
   RCORE  =    1.520    outmost cutoff radius                                                       
   RWIGS  =    1.550; RWIGS  =    0.820    wigner-seitz radius (au A)                               
   ENMAX  =  400.000; ENMIN  =  300.000 eV                                                          
   ICORE  =        2    local potential                                                             
   LCOR   =        T    correct aug charges                                                         
   LPAW   =        T    paw PP                                                                      
   EAUG   =  605.392                                                                                
   DEXC   =    0.000                                                                                
   RMAX   =    1.553    core radius for proj-oper                                                   
   RAUG   =    1.300    factor for augmentation sphere                                              
   RDEP   =    1.550    radius for radial grids                                                     
   RDEPT  =    1.329    core radius for aug-charge                                                  
                                                                                                    
   Atomic configuration                                                                             
    4 entries                                                                                       
     n  l   j            E        occ.                                                              
     1  0  0.50      -514.6923   2.0000                                                             
     2  0  0.50       -23.9615   2.0000                                                             
     2  1  0.50        -9.0305   4.0000                                                             
     3  2  1.50        -9.5241   0.0000                                                             
   Description                                                                                      
     l       E           TYP  RCUT    TYP  RCUT                                                     
     0    -23.9615318     23  1.200                                                                 
     0     -9.5240782     23  1.200                                                                 
     1     -9.0304911     23  1.520                                                                 
     1      8.1634956     23  1.520                                                                 
     2     -9.5240782      7  1.500                                                                 
  local pseudopotential read in
  partial core-charges read in
  partial kinetic energy density read in
  kinetic energy density of atom read in
  atomic valenz-charges read in
  non local Contribution for L=            0  read in
    real space projection operators read in
  non local Contribution for L=            0  read in
    real space projection operators read in
  non local Contribution for L=            1  read in
    real space projection operators read in
  non local Contribution for L=            1  read in
    real space projection operators read in
    PAW grid and wavefunctions read in
 
   number of l-projection  operators is LMAX  =            4
   number of lm-projection operators is LMMAX =            8
 
  PAW_PBE C 08Apr2002                   :
 energy of atom  1       EATOM= -147.1560
 kinetic energy error for atom=    0.0010 (will be added to EATOM!!)
  PAW_PBE O 08Apr2002                   :
 energy of atom  2       EATOM= -432.3788
 kinetic energy error for atom=    0.0022 (will be added to EATOM!!)
 
 
 POSCAR:  C  O
  positions in cartesian coordinates
  No initial velocities read in
 exchange correlation table for  LEXCH =        8
   RHO(1)=    0.500       N(1)  =     2000
   RHO(2)=  100.500       N(2)  =     4000
 


--------------------------------------------------------------------------------------------------------


 ion  position               nearest neighbor table
   1  0.000  0.002  0.000-   3 1.17   4 1.17
   2  1.000  0.118  0.000-   5 1.17   6 1.17
   3  0.000  0.035  0.000-   1 1.17
   4  0.000  0.968  0.000-   1 1.17
   5  1.000  0.118  0.034-   2 1.17
   6  0.000  0.118  0.967-   2 1.17
 
  LATTYP: Found a simple cubic cell.
 ALAT       =    35.0000000000
  
  Lattice vectors:
  
 A1 = (  35.0000000000,   0.0000000000,   0.0000000000)
 A2 = (   0.0000000000,  35.0000000000,   0.0000000000)
 A3 = (   0.0000000000,   0.0000000000,  35.0000000000)


Analysis of symmetry for initial positions (statically):
=====================================================================
 Subroutine PRICEL returns:
 Original cell was already a primitive cell.
 

 Routine SETGRP: Setting up the symmetry group for a 
 simple cubic supercell.


 Subroutine GETGRP returns: Found  1 space group operations
 (whereof  1 operations were pure point group operations)
 out of a pool of 48 trial point group operations.


The static configuration has the point symmetry C_1 .


Analysis of symmetry for dynamics (positions and initial velocities):
=====================================================================
 Subroutine PRICEL returns:
 Original cell was already a primitive cell.
 

 Routine SETGRP: Setting up the symmetry group for a 
 simple cubic supercell.


 Subroutine GETGRP returns: Found  1 space group operations
 (whereof  1 operations were pure point group operations)
 out of a pool of 48 trial point group operations.


The dynamic configuration has the point symmetry C_1 .


 Subroutine INISYM returns: Found  1 space group operations
 (whereof  1 operations are pure point group operations),
 and found     1 'primitive' translations


----------------------------------------------------------------------------------------

                                     Primitive cell                                     

  volume of cell :   42875.0000

  direct lattice vectors                    reciprocal lattice vectors
    35.000000000  0.000000000  0.000000000     0.028571429  0.000000000  0.000000000
     0.000000000 35.000000000  0.000000000     0.000000000  0.028571429  0.000000000
     0.000000000  0.000000000 35.000000000     0.000000000  0.000000000  0.028571429

  length of vectors
    35.000000000 35.000000000 35.000000000     0.028571429  0.028571429  0.028571429

  position of ions in fractional coordinates (direct lattice)
     0.000000000  0.001628171  0.000000000
     0.999957287  0.117919327  0.000215536
     0.000000000  0.035063029  0.000000000
     0.000000000  0.968193314  0.000000000
     0.999522117  0.117666472  0.033646605
     0.000392457  0.118172181  0.966784468

  ion indices of the primitive-cell ions
   primitive index   ion index
                 1           1
                 2           2
                 3           3
                 4           4
                 5           5
                 6           6

----------------------------------------------------------------------------------------

 
 
 KPOINTS: g                                       

Automatic generation of k-mesh.
Space group operators:
 irot       det(A)        alpha          n_x          n_y          n_z        tau_x        tau_y        tau_z
    1     1.000000     0.000000     1.000000     0.000000     0.000000     0.000000     0.000000     0.000000
 
 Subroutine IBZKPT returns following result:
 ===========================================
 
 Found      1 irreducible k-points:
 
 Following reciprocal coordinates:
            Coordinates               Weight
  0.000000  0.000000  0.000000      1.000000
 
 Following cartesian coordinates:
            Coordinates               Weight
  0.000000  0.000000  0.000000      1.000000
 


--------------------------------------------------------------------------------------------------------




 Dimension of arrays:
   k-points           NKPTS =      1   k-points in BZ     NKDIM =      1   number of bands    NBANDS=     32
   number of dos      NEDOS =    301   number of ions     NIONS =      6
   non local maximal  LDIM  =      4   non local SUM 2l+1 LMDIM =      8
   total plane-waves  NPLWV = ******
   max r-space proj   IRMAX =      1   max aug-charges    IRDMAX=  16541
   dimension x,y,z NGX =   378 NGY =  378 NGZ =  378
   dimension x,y,z NGXF=   756 NGYF=  756 NGZF=  756
   support grid    NGXF=   756 NGYF=  756 NGZF=  756
   ions per type =               2   4
   NGX,Y,Z   is equivalent  to a cutoff of  17.95, 17.95, 17.95 a.u.
   NGXF,Y,Z  is equivalent  to a cutoff of  35.91, 35.91, 35.91 a.u.

 SYSTEM =  C                                       
 POSCAR =   C  O                                   

 Startparameter for this run:
   NWRITE =      2    write-flag & timer
   PREC   = acc       normal or accurate (medium, high low for compatibility)
   ISTART =      0    job   : 0-new  1-cont  2-samecut
   ICHARG =      2    charge: 1-file 2-atom 10-const
   ISPIN  =      1    spin polarized calculation?
   LNONCOLLINEAR =      F non collinear calculations
   LSORBIT =      F    spin-orbit coupling
   INIWAV =      1    electr: 0-lowe 1-rand  2-diag
   LASPH  =      T    aspherical Exc in radial PAW
   METAGGA=      F    non-selfconsistent MetaGGA calc.

 Electronic Relaxation 1
   ENCUT  = 1000.0 eV  73.50 Ry    8.57 a.u.  90.25 90.25 90.25*2*pi/ulx,y,z
   ENINI  = 1000.0     initial cutoff
   ENAUG  =  644.9 eV  augmentation charge cutoff
   NELM   =     60;   NELMIN=  2; NELMDL= -5     # of ELM steps 
   EDIFF  = 0.1E-06   stopping-criterion for ELM
   LREAL  =      F    real-space projection
   NLSPLINE    = F    spline interpolate recip. space projectors
   LCOMPAT=      F    compatible to vasp.4.4
   GGA_COMPAT  = T    GGA compatible to vasp.4.4-vasp.4.6
   LMAXPAW     = -100 max onsite density
   LMAXMIX     =    2 max onsite mixed and CHGCAR
   VOSKOWN=      0    Vosko Wilk Nusair interpolation
   ROPT   =    0.00000   0.00000
 Ionic relaxation
   EDIFFG = 0.1E-05   stopping-criterion for IOM
   NSW    =      0    number of steps for IOM
   NBLOCK =      1;   KBLOCK =      1    inner block; outer block 
   IBRION =     -1    ionic relax: 0-MD 1-quasi-New 2-CG
   NFREE  =      0    steps in history (QN), initial steepest desc. (CG)
   ISIF   =      2    stress and relaxation
   IWAVPR =     10    prediction:  0-non 1-charg 2-wave 3-comb
   ISYM   =      2    0-nonsym 1-usesym 2-fastsym
   LCORR  =      T    Harris-Foulkes like correction to forces

   POTIM  = 0.5000    time-step for ionic-motion
   TEIN   =    0.0    initial temperature
   TEBEG  =    0.0;   TEEND  =   0.0 temperature during run
   SMASS  =  -3.00    Nose mass-parameter (am)
   estimated Nose-frequenzy (Omega)   =  0.10E-29 period in steps = 0.13E+47 mass=  -0.280E-25a.u.
   SCALEE = 1.0000    scale energy and forces
   NPACO  =    256;   APACO  = 16.0  distance and # of slots for P.C.
   PSTRESS=    0.0 pullay stress

  Mass of Ions in am
   POMASS =  12.01 16.00
  Ionic Valenz
   ZVAL   =   4.00  6.00
  Atomic Wigner-Seitz radii
   RWIGS  =  -1.00 -1.00
  virtual crystal weights 
   VCA    =   1.00  1.00
   NELECT =      32.0000    total number of electrons
   NUPDOWN=      -1.0000    fix difference up-down

 DOS related values:
   EMIN   =  10.00;   EMAX   =-10.00  energy-range for DOS
   EFERMI =   0.00
   ISMEAR =     0;   SIGMA  =   0.01  broadening in eV -4-tet -1-fermi 0-gaus

 Electronic relaxation 2 (details)
   IALGO  =     38    algorithm
   LDIAG  =      T    sub-space diagonalisation (order eigenvalues)
   LSUBROT=      F    optimize rotation matrix (better conditioning)
   TURBO    =      0    0=normal 1=particle mesh
   IRESTART =      0    0=no restart 2=restart with 2 vectors
   NREBOOT  =      0    no. of reboots
   NMIN     =      0    reboot dimension
   EREF     =   0.00    reference energy to select bands
   IMIX   =      4    mixing-type and parameters
     AMIX     =   0.40;   BMIX     =  1.00
     AMIX_MAG =   1.60;   BMIX_MAG =  1.00
     AMIN     =   0.10
     WC   =   100.;   INIMIX=   1;  MIXPRE=   1;  MAXMIX= -45

 Intra band minimization:
   WEIMIN = 0.0000     energy-eigenvalue tresh-hold
   EBREAK =  0.78E-09  absolut break condition
   DEPER  =   0.30     relativ break condition  

   TIME   =   0.40     timestep for ELM

  volume/ion in A,a.u.               =    7145.83     48222.46
  Fermi-wavevector in a.u.,A,eV,Ry     =   0.148499  0.280622  0.300035  0.022052
  Thomas-Fermi vector in A             =   0.821704
 
 Write flags
   LWAVE        =      T    write WAVECAR
   LDOWNSAMPLE  =      F    k-point downsampling of WAVECAR
   LCHARG       =      T    write CHGCAR
   LVTOT        =      F    write LOCPOT, total local potential
   LVHAR        =      F    write LOCPOT, Hartree potential only
   LELF         =      F    write electronic localiz. function (ELF)
   LORBIT       =      0    0 simple, 1 ext, 2 COOP (PROOUT), +10 PAW based schemes


 Dipole corrections
   LMONO  =      F    monopole corrections only (constant potential shift)
   LDIPOL =      F    correct potential (dipole corrections)
   IDIPOL =      4    1-x, 2-y, 3-z, 4-all directions 
   EPSILON=  1.0000000 bulk dielectric constant

 Exchange correlation treatment:
   GGA     =    --    GGA type
   LEXCH   =     8    internal setting for exchange type
   VOSKOWN=      0    Vosko Wilk Nusair interpolation
   LHFCALC =     F    Hartree Fock is set to
   LHFONE  =     F    Hartree Fock one center treatment
   AEXX    =    0.0000 exact exchange contribution

 Linear response parameters
   LEPSILON=     F    determine dielectric tensor
   LRPA    =     F    only Hartree local field effects (RPA)
   LNABLA  =     F    use nabla operator in PAW spheres
   LVEL    =     F    velocity operator in full k-point grid
   LINTERFAST=   F  fast interpolation
   KINTER  =     0    interpolate to denser k-point grid
   CSHIFT  =0.1000    complex shift for real part using Kramers Kronig
   OMEGAMAX=  -1.0    maximum frequency
   DEG_THRESHOLD= 0.2000000E-02 threshold for treating states as degnerate
   RTIME   =   -0.100 relaxation time in fs
  (WPLASMAI=    0.000 imaginary part of plasma frequency in eV, 0.658/RTIME)
   DFIELD  = 0.0000000 0.0000000 0.0000000 field for delta impulse in time
 
 Orbital magnetization related:
   ORBITALMAG=     F  switch on orbital magnetization
   LCHIMAG   =     F  perturbation theory with respect to B field
   DQ        =  0.001000  dq finite difference perturbation B field
   LLRAUG    =     F  two centre corrections for induced B field



--------------------------------------------------------------------------------------------------------


 Static calculation
 charge density and potential will be updated during run
 non-spin polarized calculation
 Variant of blocked Davidson
 Davidson routine will perform the subspace rotation
 perform sub-space diagonalisation
    after iterative eigenvector-optimisation
 modified Broyden-mixing scheme, WC =      100.0
 initial mixing is a Kerker type mixing with AMIX =  0.4000 and BMIX =      1.0000
 Hartree-type preconditioning will be used
 using additional bands            16
 reciprocal scheme for non local part
 use partial core corrections
 calculate Harris-corrections to forces 
   (improved forces if not selfconsistent)
 use gradient corrections 
 use of overlap-Matrix (Vanderbilt PP)
 Gauss-broadening in eV      SIGMA  =   0.01


--------------------------------------------------------------------------------------------------------


  energy-cutoff  :     1000.00
  volume of cell :    42875.00
      direct lattice vectors                 reciprocal lattice vectors
    35.000000000  0.000000000  0.000000000     0.028571429  0.000000000  0.000000000
     0.000000000 35.000000000  0.000000000     0.000000000  0.028571429  0.000000000
     0.000000000  0.000000000 35.000000000     0.000000000  0.000000000  0.028571429

  length of vectors
    35.000000000 35.000000000 35.000000000     0.028571429  0.028571429  0.028571429


 
 k-points in units of 2pi/SCALE and weight: g                                       
   0.00000000  0.00000000  0.00000000       1.000
 
 k-points in reciprocal lattice and weights: g                                       
   0.00000000  0.00000000  0.00000000       1.000
 
 position of ions in fractional coordinates (direct lattice) 
   0.00000000  0.00162817  0.00000000
   0.99995729  0.11791933  0.00021554
   0.00000000  0.03506303  0.00000000
   0.00000000  0.96819331  0.00000000
   0.99952212  0.11766647  0.03364661
   0.00039246  0.11817218  0.96678447
 
 position of ions in cartesian coordinates  (Angst):
   0.00000000  0.05698600  0.00000000
  34.99850504  4.12717643  0.00754377
   0.00000000  1.22720600  0.00000000
   0.00000000 33.88676600  0.00000000
  34.98327409  4.11832652  1.17763118
   0.01373599  4.13602633 33.83745636
 


--------------------------------------------------------------------------------------------------------


 use serial FFT for orbitals x direction half grid
 k-point   1 :   0.0000 0.0000 0.0000  plane waves: 1539209

 maximum and minimum number of plane-waves per node :   1539209  1539209

 maximum number of plane-waves:   1539209
 maximum index in each direction: 
   IXMAX=   90   IYMAX=   90   IZMAX=   90
   IXMIN=    0   IYMIN=  -90   IZMIN=  -90


 serial   3D FFT for wavefunctions
 parallel 3D FFT for charge:
    minimum data exchange during FFTs selected (reduces bandwidth)


 total amount of memory used by VASP MPI-rank0  4007897. kBytes
=======================================================================

   base      :      30000. kBytes
   nonl-proj :     344787. kBytes
   fftplans  :     676185. kBytes
   grid      :    2932288. kBytes
   one-center:          9. kBytes
   wavefun   :      24628. kBytes
 
     INWAV:  cpu time    0.0001: real time    0.0001
 Broyden mixing: mesh for mixing (old mesh)
   NGX =181   NGY =181   NGZ =181
  (NGX  =756   NGY  =756   NGZ  =756)
  gives a total of ****** points

 initial charge density was supplied:
 charge density of overlapping atoms calculated
 number of electron      32.0000000 magnetization 
 keeping initial charge density in first step


--------------------------------------------------------------------------------------------------------


 Maximum index for augmentation-charges           764 (set IRDMAX)


--------------------------------------------------------------------------------------------------------


 First call to EWALD:  gamma=   0.051
 Maximum number of real-space cells 3x 3x 3
 Maximum number of reciprocal cells 3x 3x 3

    FEWALD:  cpu time    0.0023: real time    0.0023


--------------------------------------- Iteration      1(   1)  ---------------------------------------


    POTLOK:  cpu time   14.9916: real time   15.0173
    SETDIJ:  cpu time    0.0492: real time    0.0497
     EDDAV:  cpu time   29.9414: real time   29.9998
       DOS:  cpu time    0.0008: real time    0.0008
    --------------------------------------------
      LOOP:  cpu time   44.9830: real time   45.0676

 eigenvalue-minimisations  :   128
 total energy-change (2. order) : 0.2892842E+03  (-0.6383455E+03)
 number of electron      32.0000000 magnetization 
 augmentation part       32.0000000 magnetization 

 Free energy of the ion-electron system (eV)
  ---------------------------------------------------
  alpha Z        PSCENC =         0.09979497
  Ewald energy   TEWEN  =      1959.97085235
  -Hartree energ DENC   =     -3570.20160826
  -exchange      EXHF   =         0.00000000
  -V(xc)+E(xc)   XCENC  =       135.20887822
  PAW double counting   =      1603.24200032    -1611.57549460
  entropy T*S    EENTRO =        -0.00527202
  eigenvalues    EBANDS =      -251.27161829
  atomic energy  EATOM  =      2023.81668923
  Solvation  Ediel_sol  =         0.00000000
  ---------------------------------------------------
  free energy    TOTEN  =       289.28422192 eV

  energy without entropy =      289.28949394  energy(sigma->0) =      289.28685793


--------------------------------------------------------------------------------------------------------




--------------------------------------- Iteration      1(   2)  ---------------------------------------


     EDDAV:  cpu time   30.0314: real time   30.0838
       DOS:  cpu time    0.0002: real time    0.0002
    --------------------------------------------
      LOOP:  cpu time   30.0316: real time   30.0840

 eigenvalue-minimisations  :   128
 total energy-change (2. order) :-0.2447357E+03  (-0.2447165E+03)
 number of electron      32.0000000 magnetization 
 augmentation part       32.0000000 magnetization 

 Free energy of the ion-electron system (eV)
  ---------------------------------------------------
  alpha Z        PSCENC =         0.09979497
  Ewald energy   TEWEN  =      1959.97085235
  -Hartree energ DENC   =     -3570.20160826
  -exchange      EXHF   =         0.00000000
  -V(xc)+E(xc)   XCENC  =       135.20887822
  PAW double counting   =      1603.24200032    -1611.57549460
  entropy T*S    EENTRO =        -0.00000000
  eigenvalues    EBANDS =      -496.01261423
  atomic energy  EATOM  =      2023.81668923
  Solvation  Ediel_sol  =         0.00000000
  ---------------------------------------------------
  free energy    TOTEN  =        44.54849800 eV

  energy without entropy =       44.54849800  energy(sigma->0) =       44.54849800


--------------------------------------------------------------------------------------------------------




--------------------------------------- Iteration      1(   3)  ---------------------------------------


     EDDAV:  cpu time   23.9681: real time   24.0094
       DOS:  cpu time    0.0002: real time    0.0002
    --------------------------------------------
      LOOP:  cpu time   23.9683: real time   24.0096

 eigenvalue-minimisations  :    96
 total energy-change (2. order) :-0.8838183E+02  (-0.8838183E+02)
 number of electron      32.0000000 magnetization 
 augmentation part       32.0000000 magnetization 

 Free energy of the ion-electron system (eV)
  ---------------------------------------------------
  alpha Z        PSCENC =         0.09979497
  Ewald energy   TEWEN  =      1959.97085235
  -Hartree energ DENC   =     -3570.20160826
  -exchange      EXHF   =         0.00000000
  -V(xc)+E(xc)   XCENC  =       135.20887822
  PAW double counting   =      1603.24200032    -1611.57549460
  entropy T*S    EENTRO =        -0.00000000
  eigenvalues    EBANDS =      -584.39444023
  atomic energy  EATOM  =      2023.81668923
  Solvation  Ediel_sol  =         0.00000000
  ---------------------------------------------------
  free energy    TOTEN  =       -43.83332800 eV

  energy without entropy =      -43.83332800  energy(sigma->0) =      -43.83332800


--------------------------------------------------------------------------------------------------------




--------------------------------------- Iteration      1(   4)  ---------------------------------------


     EDDAV:  cpu time   18.0185: real time   18.0529
       DOS:  cpu time    0.0002: real time    0.0002
    --------------------------------------------
      LOOP:  cpu time   18.0188: real time   18.0531

 eigenvalue-minimisations  :    64
 total energy-change (2. order) :-0.5602153E+01  (-0.5602153E+01)
 number of electron      32.0000000 magnetization 
 augmentation part       32.0000000 magnetization 

 Free energy of the ion-electron system (eV)
  ---------------------------------------------------
  alpha Z        PSCENC =         0.09979497
  Ewald energy   TEWEN  =      1959.97085235
  -Hartree energ DENC   =     -3570.20160826
  -exchange      EXHF   =         0.00000000
  -V(xc)+E(xc)   XCENC  =       135.20887822
  PAW double counting   =      1603.24200032    -1611.57549460
  entropy T*S    EENTRO =        -0.00000000
  eigenvalues    EBANDS =      -589.99659287
  atomic energy  EATOM  =      2023.81668923
  Solvation  Ediel_sol  =         0.00000000
  ---------------------------------------------------
  free energy    TOTEN  =       -49.43548064 eV

  energy without entropy =      -49.43548064  energy(sigma->0) =      -49.43548064


--------------------------------------------------------------------------------------------------------




--------------------------------------- Iteration      1(   5)  ---------------------------------------


     EDDAV:  cpu time   29.9956: real time   30.0478
       DOS:  cpu time    0.0002: real time    0.0002
    CHARGE:  cpu time    6.5122: real time    6.5219
    MIXING:  cpu time    0.2961: real time    0.2968
    --------------------------------------------
      LOOP:  cpu time   36.8042: real time   36.8668

 eigenvalue-minimisations  :   128
 total energy-change (2. order) :-0.5260988E-01  (-0.5260989E-01)
 number of electron      31.9999999 magnetization 
 augmentation part        3.0441036 magnetization 

 Broyden mixing:
  rms(total) = 0.13482E+01    rms(broyden)= 0.13482E+01
  rms(prec ) = 0.13759E+01
  weight for this iteration     100.00

 Free energy of the ion-electron system (eV)
  ---------------------------------------------------
  alpha Z        PSCENC =         0.09979497
  Ewald energy   TEWEN  =      1959.97085235
  -Hartree energ DENC   =     -3570.20160826
  -exchange      EXHF   =         0.00000000
  -V(xc)+E(xc)   XCENC  =       135.20887822
  PAW double counting   =      1603.24200032    -1611.57549460
  entropy T*S    EENTRO =        -0.00000000
  eigenvalues    EBANDS =      -590.04920275
  atomic energy  EATOM  =      2023.81668923
  Solvation  Ediel_sol  =         0.00000000
  ---------------------------------------------------
  free energy    TOTEN  =       -49.48809052 eV

  energy without entropy =      -49.48809052  energy(sigma->0) =      -49.48809052


--------------------------------------------------------------------------------------------------------




--------------------------------------- Iteration      1(   6)  ---------------------------------------


    POTLOK:  cpu time   14.7623: real time   14.7878
    SETDIJ:  cpu time    0.0484: real time    0.0485
     EDDAV:  cpu time   17.9768: real time   18.0125
       DOS:  cpu time    0.0093: real time    0.0093
    CHARGE:  cpu time    6.3629: real time    6.3724
    MIXING:  cpu time    0.3295: real time    0.3328
    --------------------------------------------
      LOOP:  cpu time   39.4892: real time   39.5633

 eigenvalue-minimisations  :    64
 total energy-change (2. order) : 0.3104731E+01  (-0.1988124E+01)
 number of electron      31.9999999 magnetization 
 augmentation part        2.6637817 magnetization 

 Broyden mixing:
  rms(total) = 0.61612E+00    rms(broyden)= 0.61612E+00
  rms(prec ) = 0.62196E+00
  weight for this iteration     100.00

 eigenvalues of (default mixing * dielectric matrix)
  average eigenvalue GAMMA=   1.0060
  1.0060

 Free energy of the ion-electron system (eV)
  ---------------------------------------------------
  alpha Z        PSCENC =         0.09979497
  Ewald energy   TEWEN  =      1959.97085235
  -Hartree energ DENC   =     -3623.09712643
  -exchange      EXHF   =         0.00000000
  -V(xc)+E(xc)   XCENC  =       138.37483103
  PAW double counting   =      2134.31857516    -2143.49377925
  entropy T*S    EENTRO =        -0.00000000
  eigenvalues    EBANDS =      -536.37319610
  atomic energy  EATOM  =      2023.81668923
  Solvation  Ediel_sol  =         0.00000000
  ---------------------------------------------------
  free energy    TOTEN  =       -46.38335904 eV

  energy without entropy =      -46.38335904  energy(sigma->0) =      -46.38335904


--------------------------------------------------------------------------------------------------------




--------------------------------------- Iteration      1(   7)  ---------------------------------------


    POTLOK:  cpu time   14.8090: real time   14.8353
    SETDIJ:  cpu time    0.0501: real time    0.0501
     EDDAV:  cpu time   29.7582: real time   29.8089
       DOS:  cpu time    0.0044: real time    0.0044
    CHARGE:  cpu time    6.3816: real time    6.3911
    MIXING:  cpu time    0.3259: real time    0.3272
    --------------------------------------------
      LOOP:  cpu time   51.3293: real time   51.4171

 eigenvalue-minimisations  :   128
 total energy-change (2. order) : 0.2765834E+00  (-0.7940652E-01)
 number of electron      31.9999999 magnetization 
 augmentation part        2.7040299 magnetization 

 Broyden mixing:
  rms(total) = 0.34356E+00    rms(broyden)= 0.34356E+00
  rms(prec ) = 0.34685E+00
  weight for this iteration     100.00

 eigenvalues of (default mixing * dielectric matrix)
  average eigenvalue GAMMA=   1.6327
  0.9129  2.3525

 Free energy of the ion-electron system (eV)
  ---------------------------------------------------
  alpha Z        PSCENC =         0.09979497
  Ewald energy   TEWEN  =      1959.97085235
  -Hartree energ DENC   =     -3632.44928317
  -exchange      EXHF   =         0.00000000
  -V(xc)+E(xc)   XCENC  =       138.73417952
  PAW double counting   =      2486.97361196    -2496.00417984
  entropy T*S    EENTRO =        -0.00000000
  eigenvalues    EBANDS =      -527.24844068
  atomic energy  EATOM  =      2023.81668923
  Solvation  Ediel_sol  =         0.00000000
  ---------------------------------------------------
  free energy    TOTEN  =       -46.10677566 eV

  energy without entropy =      -46.10677566  energy(sigma->0) =      -46.10677566


--------------------------------------------------------------------------------------------------------




--------------------------------------- Iteration      1(   8)  ---------------------------------------


    POTLOK:  cpu time   14.7753: real time   14.8005
    SETDIJ:  cpu time    0.0484: real time    0.0485
     EDDAV:  cpu time   29.8053: real time   29.8569
       DOS:  cpu time    0.0017: real time    0.0017
    CHARGE:  cpu time    6.3607: real time    6.3700
    MIXING:  cpu time    0.3321: real time    0.3328
    --------------------------------------------
      LOOP:  cpu time   51.3236: real time   51.4104

 eigenvalue-minimisations  :   128
 total energy-change (2. order) : 0.1103714E+00  (-0.4265607E-01)
 number of electron      31.9999999 magnetization 
 augmentation part        2.6854685 magnetization 

 Broyden mixing:
  rms(total) = 0.71400E-01    rms(broyden)= 0.71400E-01
  rms(prec ) = 0.73167E-01
  weight for this iteration     100.00

 eigenvalues of (default mixing * dielectric matrix)
  average eigenvalue GAMMA=   1.4156
  2.4383  0.9043  0.9043

 Free energy of the ion-electron system (eV)
  ---------------------------------------------------
  alpha Z        PSCENC =         0.09979497
  Ewald energy   TEWEN  =      1959.97085235
  -Hartree energ DENC   =     -3649.28550202
  -exchange      EXHF   =         0.00000000
  -V(xc)+E(xc)   XCENC  =       139.56687007
  PAW double counting   =      3063.45926574    -3072.47450870
  entropy T*S    EENTRO =        -0.00000000
  eigenvalues    EBANDS =      -511.14986590
  atomic energy  EATOM  =      2023.81668923
  Solvation  Ediel_sol  =         0.00000000
  ---------------------------------------------------
  free energy    TOTEN  =       -45.99640426 eV

  energy without entropy =      -45.99640426  energy(sigma->0) =      -45.99640426


--------------------------------------------------------------------------------------------------------




--------------------------------------- Iteration      1(   9)  ---------------------------------------


    POTLOK:  cpu time   14.7432: real time   14.7684
    SETDIJ:  cpu time    0.0484: real time    0.0485
     EDDAV:  cpu time   29.6908: real time   29.7470
       DOS:  cpu time    0.0012: real time    0.0012
    CHARGE:  cpu time    6.4136: real time    6.4229
    MIXING:  cpu time    0.3508: real time    0.3515
    --------------------------------------------
      LOOP:  cpu time   51.2480: real time   51.3395

 eigenvalue-minimisations  :   128
 total energy-change (2. order) : 0.6567461E-02  (-0.2901865E-02)
 number of electron      31.9999999 magnetization 
 augmentation part        2.6786636 magnetization 

 Broyden mixing:
  rms(total) = 0.32369E-01    rms(broyden)= 0.32369E-01
  rms(prec ) = 0.33458E-01
  weight for this iteration     100.00

 eigenvalues of (default mixing * dielectric matrix)
  average eigenvalue GAMMA=   1.4704
  2.4495  1.0163  1.0163  1.3994

 Free energy of the ion-electron system (eV)
  ---------------------------------------------------
  alpha Z        PSCENC =         0.09979497
  Ewald energy   TEWEN  =      1959.97085235
  -Hartree energ DENC   =     -3649.02651366
  -exchange      EXHF   =         0.00000000
  -V(xc)+E(xc)   XCENC  =       139.54677522
  PAW double counting   =      3103.35106658    -3112.33641302
  entropy T*S    EENTRO =        -0.00000000
  eigenvalues    EBANDS =      -511.41208847
  atomic energy  EATOM  =      2023.81668923
  Solvation  Ediel_sol  =         0.00000000
  ---------------------------------------------------
  free energy    TOTEN  =       -45.98983680 eV

  energy without entropy =      -45.98983680  energy(sigma->0) =      -45.98983680


--------------------------------------------------------------------------------------------------------




--------------------------------------- Iteration      1(  10)  ---------------------------------------


    POTLOK:  cpu time   14.7419: real time   14.7671
    SETDIJ:  cpu time    0.0496: real time    0.0496
     EDDAV:  cpu time   18.0037: real time   18.0334
       DOS:  cpu time    0.0003: real time    0.0003
    CHARGE:  cpu time    6.4071: real time    6.4164
    MIXING:  cpu time    0.3678: real time    0.3685
    --------------------------------------------
      LOOP:  cpu time   39.5704: real time   39.6353

 eigenvalue-minimisations  :    64
 total energy-change (2. order) :-0.1982170E-02  (-0.6043191E-03)
 number of electron      31.9999999 magnetization 
 augmentation part        2.6818964 magnetization 

 Broyden mixing:
  rms(total) = 0.85889E-02    rms(broyden)= 0.85889E-02
  rms(prec ) = 0.99957E-02
  weight for this iteration     100.00

 eigenvalues of (default mixing * dielectric matrix)
  average eigenvalue GAMMA=   1.4173
  2.4019  1.4664  1.4664  0.8759  0.8759

 Free energy of the ion-electron system (eV)
  ---------------------------------------------------
  alpha Z        PSCENC =         0.09979497
  Ewald energy   TEWEN  =      1959.97085235
  -Hartree energ DENC   =     -3648.62473098
  -exchange      EXHF   =         0.00000000
  -V(xc)+E(xc)   XCENC  =       139.49686245
  PAW double counting   =      3114.75204704    -3123.69570313
  entropy T*S    EENTRO =        -0.00000000
  eigenvalues    EBANDS =      -511.80763090
  atomic energy  EATOM  =      2023.81668923
  Solvation  Ediel_sol  =         0.00000000
  ---------------------------------------------------
  free energy    TOTEN  =       -45.99181897 eV

  energy without entropy =      -45.99181897  energy(sigma->0) =      -45.99181897


--------------------------------------------------------------------------------------------------------




--------------------------------------- Iteration      1(  11)  ---------------------------------------


    POTLOK:  cpu time   14.7781: real time   14.8031
    SETDIJ:  cpu time    0.0497: real time    0.0497
     EDDAV:  cpu time   29.7426: real time   29.7946
       DOS:  cpu time    0.0019: real time    0.0019
    CHARGE:  cpu time    6.4144: real time    6.4237
    MIXING:  cpu time    0.3843: real time    0.3850
    --------------------------------------------
      LOOP:  cpu time   51.3709: real time   51.4580

 eigenvalue-minimisations  :   128
 total energy-change (2. order) :-0.2344674E-02  (-0.4031039E-04)
 number of electron      31.9999999 magnetization 
 augmentation part        2.6818126 magnetization 

 Broyden mixing:
  rms(total) = 0.53900E-02    rms(broyden)= 0.53900E-02
  rms(prec ) = 0.67186E-02
  weight for this iteration     100.00

 eigenvalues of (default mixing * dielectric matrix)
  average eigenvalue GAMMA=   1.5640
  2.7731  2.4499  1.4154  0.9834  0.9834  0.7787

 Free energy of the ion-electron system (eV)
  ---------------------------------------------------
  alpha Z        PSCENC =         0.09979497
  Ewald energy   TEWEN  =      1959.97085235
  -Hartree energ DENC   =     -3649.07167498
  -exchange      EXHF   =         0.00000000
  -V(xc)+E(xc)   XCENC  =       139.50233891
  PAW double counting   =      3112.80801915    -3121.74581110
  entropy T*S    EENTRO =        -0.00000000
  eigenvalues    EBANDS =      -511.37437218
  atomic energy  EATOM  =      2023.81668923
  Solvation  Ediel_sol  =         0.00000000
  ---------------------------------------------------
  free energy    TOTEN  =       -45.99416365 eV

  energy without entropy =      -45.99416365  energy(sigma->0) =      -45.99416365


--------------------------------------------------------------------------------------------------------




--------------------------------------- Iteration      1(  12)  ---------------------------------------


    POTLOK:  cpu time   14.7884: real time   14.8137
    SETDIJ:  cpu time    0.0495: real time    0.0496
     EDDAV:  cpu time   17.9700: real time   18.0013
       DOS:  cpu time    0.0028: real time    0.0028
    CHARGE:  cpu time    6.2746: real time    6.2868
    MIXING:  cpu time    0.4023: real time    0.4030
    --------------------------------------------
      LOOP:  cpu time   39.4876: real time   39.5572

 eigenvalue-minimisations  :    64
 total energy-change (2. order) :-0.3943061E-02  (-0.7261571E-04)
 number of electron      31.9999999 magnetization 
 augmentation part        2.6810226 magnetization 

 Broyden mixing:
  rms(total) = 0.27686E-02    rms(broyden)= 0.27686E-02
  rms(prec ) = 0.35665E-02
  weight for this iteration     100.00

 eigenvalues of (default mixing * dielectric matrix)
  average eigenvalue GAMMA=   1.6354
  3.3686  2.4606  1.5418  1.4099  0.9342  0.9342  0.7985

 Free energy of the ion-electron system (eV)
  ---------------------------------------------------
  alpha Z        PSCENC =         0.09979497
  Ewald energy   TEWEN  =      1959.97085235
  -Hartree energ DENC   =     -3650.01974715
  -exchange      EXHF   =         0.00000000
  -V(xc)+E(xc)   XCENC  =       139.51908634
  PAW double counting   =      3114.63161318    -3123.56102207
  entropy T*S    EENTRO =        -0.00000000
  eigenvalues    EBANDS =      -510.45537355
  atomic energy  EATOM  =      2023.81668923
  Solvation  Ediel_sol  =         0.00000000
  ---------------------------------------------------
  free energy    TOTEN  =       -45.99810671 eV

  energy without entropy =      -45.99810671  energy(sigma->0) =      -45.99810671


--------------------------------------------------------------------------------------------------------




--------------------------------------- Iteration      1(  13)  ---------------------------------------


    POTLOK:  cpu time   14.7399: real time   14.7656
    SETDIJ:  cpu time    0.0495: real time    0.0496
     EDDAV:  cpu time   23.7755: real time   23.8190
       DOS:  cpu time    0.0008: real time    0.0008
    CHARGE:  cpu time    6.3944: real time    6.4042
    MIXING:  cpu time    0.4265: real time    0.4274
    --------------------------------------------
      LOOP:  cpu time   45.3867: real time   45.4666

 eigenvalue-minimisations  :    96
 total energy-change (2. order) :-0.2454178E-02  (-0.3521720E-04)
 number of electron      31.9999999 magnetization 
 augmentation part        2.6809417 magnetization 

 Broyden mixing:
  rms(total) = 0.15921E-02    rms(broyden)= 0.15921E-02
  rms(prec ) = 0.21238E-02
  weight for this iteration     100.00

 eigenvalues of (default mixing * dielectric matrix)
  average eigenvalue GAMMA=   1.7282
  4.0738  2.4582  2.0643  1.6137  0.9508  0.9508  0.8569  0.8569

 Free energy of the ion-electron system (eV)
  ---------------------------------------------------
  alpha Z        PSCENC =         0.09979497
  Ewald energy   TEWEN  =      1959.97085235
  -Hartree energ DENC   =     -3650.54551816
  -exchange      EXHF   =         0.00000000
  -V(xc)+E(xc)   XCENC  =       139.52656734
  PAW double counting   =      3113.31450454    -3122.24522287
  entropy T*S    EENTRO =        -0.00000000
  eigenvalues    EBANDS =      -509.93822829
  atomic energy  EATOM  =      2023.81668923
  Solvation  Ediel_sol  =         0.00000000
  ---------------------------------------------------
  free energy    TOTEN  =       -46.00056088 eV

  energy without entropy =      -46.00056088  energy(sigma->0) =      -46.00056088


--------------------------------------------------------------------------------------------------------




--------------------------------------- Iteration      1(  14)  ---------------------------------------


    POTLOK:  cpu time   14.7753: real time   14.8029
    SETDIJ:  cpu time    0.0502: real time    0.0502
     EDDAV:  cpu time   23.9564: real time   23.9973
       DOS:  cpu time    0.0002: real time    0.0002
    CHARGE:  cpu time    6.3485: real time    6.3580
    MIXING:  cpu time    0.4923: real time    0.4932
    --------------------------------------------
      LOOP:  cpu time   45.6229: real time   45.7018

 eigenvalue-minimisations  :    96
 total energy-change (2. order) :-0.1714503E-02  (-0.1653511E-04)
 number of electron      31.9999999 magnetization 
 augmentation part        2.6809872 magnetization 

 Broyden mixing:
  rms(total) = 0.79117E-03    rms(broyden)= 0.79117E-03
  rms(prec ) = 0.11425E-02
  weight for this iteration     100.00

 eigenvalues of (default mixing * dielectric matrix)
  average eigenvalue GAMMA=   1.8217
  4.9232  2.7194  2.3851  1.3625  1.3625  0.9501  0.9501  0.8290  0.9131

 Free energy of the ion-electron system (eV)
  ---------------------------------------------------
  alpha Z        PSCENC =         0.09979497
  Ewald energy   TEWEN  =      1959.97085235
  -Hartree energ DENC   =     -3650.82998646
  -exchange      EXHF   =         0.00000000
  -V(xc)+E(xc)   XCENC  =       139.52698086
  PAW double counting   =      3112.81980887    -3121.75158426
  entropy T*S    EENTRO =        -0.00000000
  eigenvalues    EBANDS =      -509.65483095
  atomic energy  EATOM  =      2023.81668923
  Solvation  Ediel_sol  =         0.00000000
  ---------------------------------------------------
  free energy    TOTEN  =       -46.00227539 eV

  energy without entropy =      -46.00227539  energy(sigma->0) =      -46.00227539


--------------------------------------------------------------------------------------------------------




--------------------------------------- Iteration      1(  15)  ---------------------------------------


    POTLOK:  cpu time   14.7011: real time   14.7263
    SETDIJ:  cpu time    0.0495: real time    0.0496
     EDDAV:  cpu time   23.8391: real time   23.8810
       DOS:  cpu time    0.0010: real time    0.0010
    CHARGE:  cpu time    6.4339: real time    6.4433
    MIXING:  cpu time    0.4705: real time    0.4714
    --------------------------------------------
      LOOP:  cpu time   45.4951: real time   45.5726

 eigenvalue-minimisations  :    96
 total energy-change (2. order) :-0.9720164E-03  (-0.5377295E-05)
 number of electron      31.9999999 magnetization 
 augmentation part        2.6809083 magnetization 

 Broyden mixing:
  rms(total) = 0.66518E-03    rms(broyden)= 0.66518E-03
  rms(prec ) = 0.85193E-03
  weight for this iteration     100.00

 eigenvalues of (default mixing * dielectric matrix)
  average eigenvalue GAMMA=   1.8564
  5.5049  2.9295  2.4124  1.6230  1.6230  0.9522  0.9522  0.8772  0.8772  0.8127

 Free energy of the ion-electron system (eV)
  ---------------------------------------------------
  alpha Z        PSCENC =         0.09979497
  Ewald energy   TEWEN  =      1959.97085235
  -Hartree energ DENC   =     -3650.97810067
  -exchange      EXHF   =         0.00000000
  -V(xc)+E(xc)   XCENC  =       139.52747701
  PAW double counting   =      3112.48761261    -3121.41989879
  entropy T*S    EENTRO =        -0.00000000
  eigenvalues    EBANDS =      -509.50767412
  atomic energy  EATOM  =      2023.81668923
  Solvation  Ediel_sol  =         0.00000000
  ---------------------------------------------------
  free energy    TOTEN  =       -46.00324740 eV

  energy without entropy =      -46.00324740  energy(sigma->0) =      -46.00324740


--------------------------------------------------------------------------------------------------------




--------------------------------------- Iteration      1(  16)  ---------------------------------------


    POTLOK:  cpu time   14.7518: real time   14.7773
    SETDIJ:  cpu time    0.0502: real time    0.0502
     EDDAV:  cpu time   17.9825: real time   18.0145
       DOS:  cpu time    0.0003: real time    0.0003
    CHARGE:  cpu time    6.3550: real time    6.3646
    MIXING:  cpu time    0.4993: real time    0.5003
    --------------------------------------------
      LOOP:  cpu time   39.6391: real time   39.7071

 eigenvalue-minimisations  :    64
 total energy-change (2. order) :-0.6583687E-03  (-0.2218713E-05)
 number of electron      31.9999999 magnetization 
 augmentation part        2.6808900 magnetization 

 Broyden mixing:
  rms(total) = 0.35321E-03    rms(broyden)= 0.35321E-03
  rms(prec ) = 0.48929E-03
  weight for this iteration     100.00

 eigenvalues of (default mixing * dielectric matrix)
  average eigenvalue GAMMA=   2.0107
  6.5207  3.6476  2.5288  2.2741  1.5573  1.1103  0.9602  0.9602  0.8867  0.8867
  0.7852

 Free energy of the ion-electron system (eV)
  ---------------------------------------------------
  alpha Z        PSCENC =         0.09979497
  Ewald energy   TEWEN  =      1959.97085235
  -Hartree energ DENC   =     -3651.02728816
  -exchange      EXHF   =         0.00000000
  -V(xc)+E(xc)   XCENC  =       139.52627925
  PAW double counting   =      3112.72330919    -3121.65479408
  entropy T*S    EENTRO =        -0.00000000
  eigenvalues    EBANDS =      -509.45874851
  atomic energy  EATOM  =      2023.81668923
  Solvation  Ediel_sol  =         0.00000000
  ---------------------------------------------------
  free energy    TOTEN  =       -46.00390577 eV

  energy without entropy =      -46.00390577  energy(sigma->0) =      -46.00390577


--------------------------------------------------------------------------------------------------------




--------------------------------------- Iteration      1(  17)  ---------------------------------------


    POTLOK:  cpu time   14.7065: real time   14.7326
    SETDIJ:  cpu time    0.0484: real time    0.0484
     EDDAV:  cpu time   23.6947: real time   23.7365
       DOS:  cpu time    0.0110: real time    0.0110
    CHARGE:  cpu time    6.3241: real time    6.3347
    MIXING:  cpu time    0.5254: real time    0.5263
    --------------------------------------------
      LOOP:  cpu time   45.3100: real time   45.3896

 eigenvalue-minimisations  :    96
 total energy-change (2. order) :-0.5401865E-03  (-0.2604106E-05)
 number of electron      31.9999999 magnetization 
 augmentation part        2.6808517 magnetization 

 Broyden mixing:
  rms(total) = 0.22427E-03    rms(broyden)= 0.22427E-03
  rms(prec ) = 0.28211E-03
  weight for this iteration     100.00

 eigenvalues of (default mixing * dielectric matrix)
  average eigenvalue GAMMA=   2.0696
  7.1372  3.8863  2.4934  2.4934  1.6671  1.6671  0.9718  0.9718  0.9126  0.9126
  0.7945  0.9268

 Free energy of the ion-electron system (eV)
  ---------------------------------------------------
  alpha Z        PSCENC =         0.09979497
  Ewald energy   TEWEN  =      1959.97085235
  -Hartree energ DENC   =     -3651.06592504
  -exchange      EXHF   =         0.00000000
  -V(xc)+E(xc)   XCENC  =       139.52546779
  PAW double counting   =      3112.99289508    -3121.92363973
  entropy T*S    EENTRO =        -0.00000000
  eigenvalues    EBANDS =      -509.42058061
  atomic energy  EATOM  =      2023.81668923
  Solvation  Ediel_sol  =         0.00000000
  ---------------------------------------------------
  free energy    TOTEN  =       -46.00444596 eV

  energy without entropy =      -46.00444596  energy(sigma->0) =      -46.00444596


--------------------------------------------------------------------------------------------------------




--------------------------------------- Iteration      1(  18)  ---------------------------------------


    POTLOK:  cpu time   14.7107: real time   14.7363
    SETDIJ:  cpu time    0.0485: real time    0.0486
     EDDAV:  cpu time   29.6143: real time   29.6668
       DOS:  cpu time    0.0043: real time    0.0044
    CHARGE:  cpu time    6.4053: real time    6.4155
    MIXING:  cpu time    0.5513: real time    0.5523
    --------------------------------------------
      LOOP:  cpu time   51.3345: real time   51.4238

 eigenvalue-minimisations  :   128
 total energy-change (2. order) :-0.2168481E-03  (-0.4251850E-06)
 number of electron      31.9999999 magnetization 
 augmentation part        2.6808574 magnetization 

 Broyden mixing:
  rms(total) = 0.11044E-03    rms(broyden)= 0.11044E-03
  rms(prec ) = 0.14619E-03
  weight for this iteration     100.00

 eigenvalues of (default mixing * dielectric matrix)
  average eigenvalue GAMMA=   2.1992
  7.9172  4.7064  3.0670  2.4338  2.2829  1.5560  1.1847  0.9550  0.9550  0.8023
  0.9177  0.9059  0.9059

 Free energy of the ion-electron system (eV)
  ---------------------------------------------------
  alpha Z        PSCENC =         0.09979497
  Ewald energy   TEWEN  =      1959.97085235
  -Hartree energ DENC   =     -3651.07690505
  -exchange      EXHF   =         0.00000000
  -V(xc)+E(xc)   XCENC  =       139.52499827
  PAW double counting   =      3112.78262995    -3121.71359898
  entropy T*S    EENTRO =        -0.00000000
  eigenvalues    EBANDS =      -509.40912354
  atomic energy  EATOM  =      2023.81668923
  Solvation  Ediel_sol  =         0.00000000
  ---------------------------------------------------
  free energy    TOTEN  =       -46.00466281 eV

  energy without entropy =      -46.00466281  energy(sigma->0) =      -46.00466281


--------------------------------------------------------------------------------------------------------




--------------------------------------- Iteration      1(  19)  ---------------------------------------


    POTLOK:  cpu time   14.8080: real time   14.8339
    SETDIJ:  cpu time    0.0500: real time    0.0501
     EDDAV:  cpu time   17.9711: real time   18.0022
       DOS:  cpu time    0.0008: real time    0.0008
    CHARGE:  cpu time    6.3046: real time    6.3159
    MIXING:  cpu time    0.5871: real time    0.5881
    --------------------------------------------
      LOOP:  cpu time   39.7216: real time   39.7909

 eigenvalue-minimisations  :    64
 total energy-change (2. order) :-0.1154621E-03  (-0.2256275E-06)
 number of electron      31.9999999 magnetization 
 augmentation part        2.6808548 magnetization 

 Broyden mixing:
  rms(total) = 0.58262E-04    rms(broyden)= 0.58262E-04
  rms(prec ) = 0.76009E-04
  weight for this iteration     100.00

 eigenvalues of (default mixing * dielectric matrix)
  average eigenvalue GAMMA=   2.2364
  8.3763  5.0441  3.1843  2.4900  2.1045  1.9682  1.5959  1.0861  0.9446  0.9446
  0.9383  0.9383  0.8017  0.8923

 Free energy of the ion-electron system (eV)
  ---------------------------------------------------
  alpha Z        PSCENC =         0.09979497
  Ewald energy   TEWEN  =      1959.97085235
  -Hartree energ DENC   =     -3651.08653790
  -exchange      EXHF   =         0.00000000
  -V(xc)+E(xc)   XCENC  =       139.52500647
  PAW double counting   =      3112.78727112    -3121.71845139
  entropy T*S    EENTRO =        -0.00000000
  eigenvalues    EBANDS =      -509.39940312
  atomic energy  EATOM  =      2023.81668923
  Solvation  Ediel_sol  =         0.00000000
  ---------------------------------------------------
  free energy    TOTEN  =       -46.00477827 eV

  energy without entropy =      -46.00477827  energy(sigma->0) =      -46.00477827


--------------------------------------------------------------------------------------------------------




--------------------------------------- Iteration      1(  20)  ---------------------------------------


    POTLOK:  cpu time   14.6648: real time   14.6902
    SETDIJ:  cpu time    0.0484: real time    0.0484
     EDDAV:  cpu time   29.5034: real time   29.5561
       DOS:  cpu time    0.0021: real time    0.0021
    CHARGE:  cpu time    6.4694: real time    6.4853
    MIXING:  cpu time    0.6225: real time    0.6236
    --------------------------------------------
      LOOP:  cpu time   51.3107: real time   51.4058

 eigenvalue-minimisations  :   128
 total energy-change (2. order) :-0.4721227E-04  (-0.3640791E-07)
 number of electron      31.9999999 magnetization 
 augmentation part        2.6808540 magnetization 

 Broyden mixing:
  rms(total) = 0.30862E-04    rms(broyden)= 0.30862E-04
  rms(prec ) = 0.41197E-04
  weight for this iteration     100.00

 eigenvalues of (default mixing * dielectric matrix)
  average eigenvalue GAMMA=   2.2970
  8.8666  5.4523  3.6012  2.7477  2.4085  2.1771  1.5523  1.1769  1.0299  0.9366
  0.9366  0.9451  0.9451  0.8021  0.8766

 Free energy of the ion-electron system (eV)
  ---------------------------------------------------
  alpha Z        PSCENC =         0.09979497
  Ewald energy   TEWEN  =      1959.97085235
  -Hartree energ DENC   =     -3651.08999869
  -exchange      EXHF   =         0.00000000
  -V(xc)+E(xc)   XCENC  =       139.52497607
  PAW double counting   =      3112.78831464    -3121.71942799
  entropy T*S    EENTRO =        -0.00000000
  eigenvalues    EBANDS =      -509.39602607
  atomic energy  EATOM  =      2023.81668923
  Solvation  Ediel_sol  =         0.00000000
  ---------------------------------------------------
  free energy    TOTEN  =       -46.00482548 eV

  energy without entropy =      -46.00482548  energy(sigma->0) =      -46.00482548


--------------------------------------------------------------------------------------------------------




--------------------------------------- Iteration      1(  21)  ---------------------------------------


    POTLOK:  cpu time   14.6763: real time   14.7016
    SETDIJ:  cpu time    0.0484: real time    0.0485
     EDDAV:  cpu time   17.9295: real time   17.9606
       DOS:  cpu time    0.0009: real time    0.0009
    CHARGE:  cpu time    6.3622: real time    6.3725
    MIXING:  cpu time    0.6586: real time    0.6598
    --------------------------------------------
      LOOP:  cpu time   39.6760: real time   39.7437

 eigenvalue-minimisations  :    64
 total energy-change (2. order) :-0.2442146E-04  (-0.1902658E-07)
 number of electron      31.9999999 magnetization 
 augmentation part        2.6808542 magnetization 

 Broyden mixing:
  rms(total) = 0.18801E-04    rms(broyden)= 0.18801E-04
  rms(prec ) = 0.23459E-04
  weight for this iteration     100.00

 eigenvalues of (default mixing * dielectric matrix)
  average eigenvalue GAMMA=   2.3312
  9.1535  5.7630  4.0858  2.8938  2.4619  2.0877  1.8203  1.5711  1.0753  0.9515
  0.9515  0.9319  0.9319  0.9239  0.8933  0.8028

 Free energy of the ion-electron system (eV)
  ---------------------------------------------------
  alpha Z        PSCENC =         0.09979497
  Ewald energy   TEWEN  =      1959.97085235
  -Hartree energ DENC   =     -3651.09099565
  -exchange      EXHF   =         0.00000000
  -V(xc)+E(xc)   XCENC  =       139.52491970
  PAW double counting   =      3112.79827374    -3121.72936451
  entropy T*S    EENTRO =        -0.00000000
  eigenvalues    EBANDS =      -509.39501973
  atomic energy  EATOM  =      2023.81668923
  Solvation  Ediel_sol  =         0.00000000
  ---------------------------------------------------
  free energy    TOTEN  =       -46.00484990 eV

  energy without entropy =      -46.00484990  energy(sigma->0) =      -46.00484990


--------------------------------------------------------------------------------------------------------




--------------------------------------- Iteration      1(  22)  ---------------------------------------


    POTLOK:  cpu time   14.7258: real time   14.7518
    SETDIJ:  cpu time    0.0625: real time    0.0625
     EDDAV:  cpu time   29.4964: real time   29.5491
       DOS:  cpu time    0.0003: real time    0.0003
    CHARGE:  cpu time    6.3575: real time    6.3670
    MIXING:  cpu time    0.6907: real time    0.6921
    --------------------------------------------
      LOOP:  cpu time   51.3332: real time   51.4228

 eigenvalue-minimisations  :   128
 total energy-change (2. order) :-0.9953004E-05  (-0.1008182E-07)
 number of electron      31.9999999 magnetization 
 augmentation part        2.6808546 magnetization 

 Broyden mixing:
  rms(total) = 0.10037E-04    rms(broyden)= 0.10037E-04
  rms(prec ) = 0.12783E-04
  weight for this iteration     100.00

 eigenvalues of (default mixing * dielectric matrix)
  average eigenvalue GAMMA=   2.3408
  9.3204  6.1738  4.3309  3.0530  2.4954  2.2341  2.0630  1.5440  1.1673  0.9489
  0.9489  0.8031  0.9666  0.9666  0.9199  0.9199  0.9385

 Free energy of the ion-electron system (eV)
  ---------------------------------------------------
  alpha Z        PSCENC =         0.09979497
  Ewald energy   TEWEN  =      1959.97085235
  -Hartree energ DENC   =     -3651.09193258
  -exchange      EXHF   =         0.00000000
  -V(xc)+E(xc)   XCENC  =       139.52492360
  PAW double counting   =      3112.80342848    -3121.73450990
  entropy T*S    EENTRO =        -0.00000000
  eigenvalues    EBANDS =      -509.39410600
  atomic energy  EATOM  =      2023.81668923
  Solvation  Ediel_sol  =         0.00000000
  ---------------------------------------------------
  free energy    TOTEN  =       -46.00485985 eV

  energy without entropy =      -46.00485985  energy(sigma->0) =      -46.00485985


--------------------------------------------------------------------------------------------------------




--------------------------------------- Iteration      1(  23)  ---------------------------------------


    POTLOK:  cpu time   14.6491: real time   14.6742
    SETDIJ:  cpu time    0.0485: real time    0.0486
     EDDAV:  cpu time   23.6368: real time   23.6807
       DOS:  cpu time    0.0031: real time    0.0031
    CHARGE:  cpu time    6.3359: real time    6.3461
    MIXING:  cpu time    0.7365: real time    0.7378
    --------------------------------------------
      LOOP:  cpu time   45.4098: real time   45.4906

 eigenvalue-minimisations  :    96
 total energy-change (2. order) :-0.4553161E-05  (-0.7138798E-08)
 number of electron      31.9999999 magnetization 
 augmentation part        2.6808529 magnetization 

 Broyden mixing:
  rms(total) = 0.64094E-05    rms(broyden)= 0.64094E-05
  rms(prec ) = 0.80186E-05
  weight for this iteration     100.00

 eigenvalues of (default mixing * dielectric matrix)
  average eigenvalue GAMMA=   2.3625
  9.4526  6.4740  4.5557  3.2694  2.5647  2.4720  2.0815  1.6941  1.5508  1.0588
  0.9763  0.9763  0.9416  0.9416  0.8022  0.9163  0.9163  0.8803

 Free energy of the ion-electron system (eV)
  ---------------------------------------------------
  alpha Z        PSCENC =         0.09979497
  Ewald energy   TEWEN  =      1959.97085235
  -Hartree energ DENC   =     -3651.09232000
  -exchange      EXHF   =         0.00000000
  -V(xc)+E(xc)   XCENC  =       139.52493711
  PAW double counting   =      3112.80462135    -3121.73570174
  entropy T*S    EENTRO =        -0.00000000
  eigenvalues    EBANDS =      -509.39373767
  atomic energy  EATOM  =      2023.81668923
  Solvation  Ediel_sol  =         0.00000000
  ---------------------------------------------------
  free energy    TOTEN  =       -46.00486441 eV

  energy without entropy =      -46.00486441  energy(sigma->0) =      -46.00486441


--------------------------------------------------------------------------------------------------------




--------------------------------------- Iteration      1(  24)  ---------------------------------------


    POTLOK:  cpu time   14.6658: real time   14.6919
    SETDIJ:  cpu time    0.0484: real time    0.0484
     EDDAV:  cpu time   17.8714: real time   17.9051
       DOS:  cpu time    0.0021: real time    0.0021
    CHARGE:  cpu time    6.3140: real time    6.3237
    MIXING:  cpu time    0.7765: real time    0.7779
    --------------------------------------------
      LOOP:  cpu time   39.6782: real time   39.7491

 eigenvalue-minimisations  :    64
 total energy-change (2. order) :-0.2835936E-05  (-0.5946308E-08)
 number of electron      31.9999999 magnetization 
 augmentation part        2.6808531 magnetization 

 Broyden mixing:
  rms(total) = 0.36360E-05    rms(broyden)= 0.36360E-05
  rms(prec ) = 0.44803E-05
  weight for this iteration     100.00

 eigenvalues of (default mixing * dielectric matrix)
  average eigenvalue GAMMA=   2.3933
  9.6017  6.7755  4.9449  3.6874  2.8826  2.4548  2.1909  1.8493  1.5347  1.2113
  1.0160  1.0160  0.9504  0.9504  0.9175  0.9175  0.8015  0.9039  0.8674

 Free energy of the ion-electron system (eV)
  ---------------------------------------------------
  alpha Z        PSCENC =         0.09979497
  Ewald energy   TEWEN  =      1959.97085235
  -Hartree energ DENC   =     -3651.09215572
  -exchange      EXHF   =         0.00000000
  -V(xc)+E(xc)   XCENC  =       139.52492636
  PAW double counting   =      3112.80201216    -3121.73309790
  entropy T*S    EENTRO =        -0.00000000
  eigenvalues    EBANDS =      -509.39388869
  atomic energy  EATOM  =      2023.81668923
  Solvation  Ediel_sol  =         0.00000000
  ---------------------------------------------------
  free energy    TOTEN  =       -46.00486724 eV

  energy without entropy =      -46.00486724  energy(sigma->0) =      -46.00486724


--------------------------------------------------------------------------------------------------------




--------------------------------------- Iteration      1(  25)  ---------------------------------------


    POTLOK:  cpu time   14.7079: real time   14.7329
    SETDIJ:  cpu time    0.0501: real time    0.0501
     EDDAV:  cpu time   29.4578: real time   29.5138
       DOS:  cpu time    0.0002: real time    0.0002
    CHARGE:  cpu time    6.3539: real time    6.3694
    MIXING:  cpu time    0.8149: real time    0.8166
    --------------------------------------------
      LOOP:  cpu time   51.3850: real time   51.4831

 eigenvalue-minimisations  :   128
 total energy-change (2. order) :-0.1194436E-05  (-0.5326001E-08)
 number of electron      31.9999999 magnetization 
 augmentation part        2.6808538 magnetization 

 Broyden mixing:
  rms(total) = 0.19563E-05    rms(broyden)= 0.19563E-05
  rms(prec ) = 0.24504E-05
  weight for this iteration     100.00

 eigenvalues of (default mixing * dielectric matrix)
  average eigenvalue GAMMA=   2.4276
  9.6834  7.0019  5.2060  3.9557  3.0443  2.4606  2.4606  2.1294  1.6492  1.5454
  1.0779  1.0162  1.0162  0.9450  0.9450  0.9225  0.9225  0.8023  0.8838  0.8838

 Free energy of the ion-electron system (eV)
  ---------------------------------------------------
  alpha Z        PSCENC =         0.09979497
  Ewald energy   TEWEN  =      1959.97085235
  -Hartree energ DENC   =     -3651.09206078
  -exchange      EXHF   =         0.00000000
  -V(xc)+E(xc)   XCENC  =       139.52491980
  PAW double counting   =      3112.80164299    -3121.73273181
  entropy T*S    EENTRO =        -0.00000000
  eigenvalues    EBANDS =      -509.39397519
  atomic energy  EATOM  =      2023.81668923
  Solvation  Ediel_sol  =         0.00000000
  ---------------------------------------------------
  free energy    TOTEN  =       -46.00486844 eV

  energy without entropy =      -46.00486844  energy(sigma->0) =      -46.00486844


--------------------------------------------------------------------------------------------------------




--------------------------------------- Iteration      1(  26)  ---------------------------------------


    POTLOK:  cpu time   14.6949: real time   14.7205
    SETDIJ:  cpu time    0.0484: real time    0.0484
     EDDAV:  cpu time   17.8792: real time   17.9180
       DOS:  cpu time    0.0005: real time    0.0005
    CHARGE:  cpu time    6.3305: real time    6.3399
    MIXING:  cpu time    0.8637: real time    0.8652
    --------------------------------------------
      LOOP:  cpu time   39.8171: real time   39.8924

 eigenvalue-minimisations  :    64
 total energy-change (2. order) :-0.6513401E-06  (-0.4492154E-08)
 number of electron      31.9999999 magnetization 
 augmentation part        2.6808537 magnetization 

 Broyden mixing:
  rms(total) = 0.11031E-05    rms(broyden)= 0.11031E-05
  rms(prec ) = 0.13384E-05
  weight for this iteration     100.00

 eigenvalues of (default mixing * dielectric matrix)
  average eigenvalue GAMMA=   2.4336
  9.7212  7.2490  5.4621  4.2079  3.1862  2.7240  2.4449  2.1750  1.7696  1.5128
  1.3055  1.0352  1.0352  0.9453  0.9453  0.8026  0.9345  0.9345  0.8790  0.9177
  0.9177

 Free energy of the ion-electron system (eV)
  ---------------------------------------------------
  alpha Z        PSCENC =         0.09979497
  Ewald energy   TEWEN  =      1959.97085235
  -Hartree energ DENC   =     -3651.09206367
  -exchange      EXHF   =         0.00000000
  -V(xc)+E(xc)   XCENC  =       139.52492072
  PAW double counting   =      3112.80168734    -3121.73277619
  entropy T*S    EENTRO =        -0.00000000
  eigenvalues    EBANDS =      -509.39397384
  atomic energy  EATOM  =      2023.81668923
  Solvation  Ediel_sol  =         0.00000000
  ---------------------------------------------------
  free energy    TOTEN  =       -46.00486909 eV

  energy without entropy =      -46.00486909  energy(sigma->0) =      -46.00486909


--------------------------------------------------------------------------------------------------------




--------------------------------------- Iteration      1(  27)  ---------------------------------------


    POTLOK:  cpu time   14.7279: real time   14.7554
    SETDIJ:  cpu time    0.0484: real time    0.0484
     EDDAV:  cpu time   29.4844: real time   29.5500
       DOS:  cpu time    0.0004: real time    0.0004
    CHARGE:  cpu time    6.3576: real time    6.3671
    MIXING:  cpu time    0.9072: real time    0.9088
    --------------------------------------------
      LOOP:  cpu time   51.5260: real time   51.6302

 eigenvalue-minimisations  :   128
 total energy-change (2. order) :-0.2038105E-06  (-0.3921091E-08)
 number of electron      31.9999999 magnetization 
 augmentation part        2.6808535 magnetization 

 Broyden mixing:
  rms(total) = 0.72513E-06    rms(broyden)= 0.72513E-06
  rms(prec ) = 0.86118E-06
  weight for this iteration     100.00

 eigenvalues of (default mixing * dielectric matrix)
  average eigenvalue GAMMA=   2.4590
  9.7560  7.4424  5.7437  4.3960  3.4457  2.8640  2.4320  2.2578  2.1575  1.5765
  1.5139  1.0565  1.0565  1.0804  0.9470  0.9470  0.8025  0.9367  0.9367  0.9360
  0.9360  0.8771

 Free energy of the ion-electron system (eV)
  ---------------------------------------------------
  alpha Z        PSCENC =         0.09979497
  Ewald energy   TEWEN  =      1959.97085235
  -Hartree energ DENC   =     -3651.09206545
  -exchange      EXHF   =         0.00000000
  -V(xc)+E(xc)   XCENC  =       139.52492213
  PAW double counting   =      3112.80175877    -3121.73284718
  entropy T*S    EENTRO =        -0.00000000
  eigenvalues    EBANDS =      -509.39397412
  atomic energy  EATOM  =      2023.81668923
  Solvation  Ediel_sol  =         0.00000000
  ---------------------------------------------------
  free energy    TOTEN  =       -46.00486929 eV

  energy without entropy =      -46.00486929  energy(sigma->0) =      -46.00486929


--------------------------------------------------------------------------------------------------------




--------------------------------------- Iteration      1(  28)  ---------------------------------------


    POTLOK:  cpu time   14.7554: real time   14.7811
    SETDIJ:  cpu time    0.0485: real time    0.0486
     EDDAV:  cpu time   17.8026: real time   17.8397
       DOS:  cpu time    0.0015: real time    0.0015
    CHARGE:  cpu time    6.4084: real time    6.4183
    MIXING:  cpu time    0.9559: real time    0.9577
    --------------------------------------------
      LOOP:  cpu time   39.9723: real time   40.0468

 eigenvalue-minimisations  :    64
 total energy-change (2. order) :-0.1279959E-06  (-0.3039190E-08)
 number of electron      31.9999999 magnetization 
 augmentation part        2.6808536 magnetization 

 Broyden mixing:
  rms(total) = 0.26010E-06    rms(broyden)= 0.26010E-06
  rms(prec ) = 0.35127E-06
  weight for this iteration     100.00

 eigenvalues of (default mixing * dielectric matrix)
  average eigenvalue GAMMA=   2.4722
  9.7916  7.6590  5.9940  4.7007  3.6626  2.9776  2.5601  2.3993  2.1507  1.7580
  1.5250  1.3013  1.0501  1.0501  0.9472  0.9472  0.8024  0.9502  0.9502  0.8800
  0.9577  0.9227  0.9227

 Free energy of the ion-electron system (eV)
  ---------------------------------------------------
  alpha Z        PSCENC =         0.09979497
  Ewald energy   TEWEN  =      1959.97085235
  -Hartree energ DENC   =     -3651.09201205
  -exchange      EXHF   =         0.00000000
  -V(xc)+E(xc)   XCENC  =       139.52492002
  PAW double counting   =      3112.80192680    -3121.73301410
  entropy T*S    EENTRO =        -0.00000000
  eigenvalues    EBANDS =      -509.39402664
  atomic energy  EATOM  =      2023.81668923
  Solvation  Ediel_sol  =         0.00000000
  ---------------------------------------------------
  free energy    TOTEN  =       -46.00486942 eV

  energy without entropy =      -46.00486942  energy(sigma->0) =      -46.00486942


--------------------------------------------------------------------------------------------------------




--------------------------------------- Iteration      1(  29)  ---------------------------------------


    POTLOK:  cpu time   14.7382: real time   14.7631
    SETDIJ:  cpu time    0.0483: real time    0.0484
     EDDAV:  cpu time   29.3765: real time   29.4387
       DOS:  cpu time    0.0002: real time    0.0002
    --------------------------------------------
      LOOP:  cpu time   44.1633: real time   44.2504

 eigenvalue-minimisations  :   128
 total energy-change (2. order) :-0.4443427E-07  (-0.2825576E-08)
 number of electron      31.9999999 magnetization 
 augmentation part        2.6808536 magnetization 

 Free energy of the ion-electron system (eV)
  ---------------------------------------------------
  alpha Z        PSCENC =         0.09979497
  Ewald energy   TEWEN  =      1959.97085235
  -Hartree energ DENC   =     -3651.09199008
  -exchange      EXHF   =         0.00000000
  -V(xc)+E(xc)   XCENC  =       139.52491950
  PAW double counting   =      3112.80205455    -3121.73314175
  entropy T*S    EENTRO =        -0.00000000
  eigenvalues    EBANDS =      -509.39404823
  atomic energy  EATOM  =      2023.81668923
  Solvation  Ediel_sol  =         0.00000000
  ---------------------------------------------------
  free energy    TOTEN  =       -46.00486947 eV

  energy without entropy =      -46.00486947  energy(sigma->0) =      -46.00486947


--------------------------------------------------------------------------------------------------------




 average (electrostatic) potential at core
  the test charge radii are     0.6991  0.7215
  (the norm of the test charge is              1.0000)
       1 -63.8484       2 -63.5011       3 -82.8851       4 -82.8411       5 -82.5130
       6 -82.5136
 
 
 
 E-fermi :  -8.7864     XC(G=0):  -0.0386     alpha+bet : -0.0117


 k-point     1 :       0.0000    0.0000    0.0000
  band No.  band energies     occupation 
      1     -29.3924      2.00000
      2     -29.0457      2.00000
      3     -28.3851      2.00000
      4     -28.0396      2.00000
      5     -14.0166      2.00000
      6     -13.5914      2.00000
      7     -12.9329      2.00000
      8     -12.8595      2.00000
      9     -12.8518      2.00000
     10     -12.5213      2.00000
     11     -12.4411      2.00000
     12     -12.3177      2.00000
     13      -9.2701      2.00000
     14      -9.2500      2.00000
     15      -8.9119      2.00000
     16      -8.8700      2.00000
     17      -1.2232      0.00000
     18      -0.6912      0.00000
     19      -0.6642      0.00000
     20      -0.5210      0.00000
     21      -0.3324      0.00000
     22      -0.2879      0.00000
     23       0.0082      0.00000
     24       0.1083      0.00000
     25       0.1144      0.00000
     26       0.1240      0.00000
     27       0.1255      0.00000
     28       0.1321      0.00000
     29       0.1492      0.00000
     30       0.2005      0.00000
     31       0.2125      0.00000
     32       0.2458      0.00000


--------------------------------------------------------------------------------------------------------


 soft charge-density along one line, spin component            1
         0         1         2         3         4         5         6         7         8         9
 total charge-density along one line
 
 pseudopotential strength for first ion, spin component:            1
 10.565  14.057   0.000   0.000   0.000  -0.001  -0.000  -0.000
 14.057  18.704   0.000   0.000   0.000  -0.001  -0.000  -0.000
  0.000   0.000  -4.699   0.000   0.000   9.172  -0.000  -0.000
  0.000   0.000   0.000  -4.624  -0.000  -0.000   9.048   0.000
  0.000   0.000   0.000  -0.000  -4.624  -0.000   0.000   9.048
 -0.001  -0.001   9.172  -0.000  -0.000 -20.063   0.000   0.000
 -0.000  -0.000  -0.000   9.048   0.000   0.000 -19.857  -0.000
 -0.000  -0.000  -0.000   0.000   9.048   0.000  -0.000 -19.858
 total augmentation occupancy for first ion, spin component:            1
 11.126  -5.610   0.002  -0.000  -0.000   0.000  -0.000  -0.000
 -5.610   3.035  -0.003  -0.000   0.000  -0.000   0.000   0.000
  0.002  -0.003   2.592  -0.000  -0.000   0.330   0.000  -0.000
 -0.000  -0.000  -0.000   1.238  -0.000   0.000   0.082   0.000
 -0.000   0.000  -0.000  -0.000   1.237   0.000   0.000   0.082
  0.000  -0.000   0.330   0.000   0.000   0.051  -0.000  -0.000
 -0.000   0.000   0.000   0.082   0.000  -0.000   0.005   0.000
 -0.000   0.000  -0.000   0.000   0.082  -0.000   0.000   0.005


------------------------ aborting loop because EDIFF is reached ----------------------------------------



 DIPCOR: dipole corrections for dipol
 direction  1 min pos   356, direction  2 min pos   411, direction  3 min pos   434,
 dipolmoment          -0.000014      0.047389     -0.000035 electrons x Angstroem
 Tr[quadrupol]        15.802378

 energy correction for charged system         0.000000 eV
 dipol+quadrupol energy correction            0.000002 eV
 added-field ion interaction          0.000000 eV  (added to PSCEN)

 
  *************** adding dipol energy to TOTEN NOW **************** 
    CHARGE:  cpu time    6.3821: real time    6.3918
    FORLOC:  cpu time    0.4923: real time    0.4930
    FORNL :  cpu time    0.6760: real time    0.6771
    STRESS:  cpu time   15.7843: real time   15.8125
    FORCOR:  cpu time   12.7212: real time   12.7499
    FORHAR:  cpu time    3.5291: real time    3.5354
    MIXING:  cpu time    1.0027: real time    1.0050
    OFIELD:  cpu time    0.0000: real time    0.0000

  Hirshfeld charges:
            ion         q(e)     
   ------------------------------
      1     C           0.299
      2     C           0.283
      3     O          -0.139
      4     O          -0.141
      5     O          -0.151
      6     O          -0.151

  Hirshfeld-I charges:
            ion         q(e)        dq(e)    
   ------------------------------------------
      1     C           0.853     -0.357E-04
      2     C           0.854     -0.153E-04
      3     O          -0.439      0.193E-04
      4     O          -0.416      0.176E-04
      5     O          -0.425      0.706E-05
      6     O          -0.426      0.707E-05

   Hirshfeld-I converged in  15 cycles. Convergence criterion |dq|< 0.500E-04 e

  Atomic reference data used in the T-S method for vdW correction:
            C6at              R0at           ALPHAat      REFSTATE
            (au)              (au)            (au)                
   ---------------------------------------------------------------
   C          46.600          3.590         12.000         0
   O          15.600          3.194          5.400         0

  Tkatchenko/Scheffler method for vdW energy calculation
  ---------------------------------------------------------------------------------------------

  Parameters of vdW forcefield:
            C6ts              R0ts           ALPHAts        RELVOL
            (au)              (au)            (au)                
   ---------------------------------------------------------------
   C           8.898          2.725          5.244          0.43697629
   C           9.007          2.730          5.276          0.43963545
   O          19.937          3.327          6.105          1.13049828
   O          18.338          3.281          5.855          1.08419491
   O          18.931          3.298          5.949          1.10158527
   O          18.927          3.298          5.948          1.10147270

  vdW correction parametrized for the method pbe       

  IVDW =  21
  VDW_RADIUS =    50.000 A
  VDW_IDAMPF =  0
  VDW_S6 =     1.000
  VDW_SR =     0.950
  VDW_D =    20.000
  LVDW_ONECELL = F F F
  LVDW_SAMETYPE T T
  LVDW_EWALD = F

  Number of pair interactions contributing to vdW energy:     321
  Edisp (eV):   -0.01479
    FORVDW:  cpu time   99.0493: real time   99.1115

  FORCE on cell =-STRESS in cart. coord.  units (eV):
  Direction    XX          YY          ZZ          XY          YZ          ZX
  --------------------------------------------------------------------------------------
  Alpha Z     0.09979     0.09979     0.09979
  Ewald    -200.89108  1480.96291   679.89982    -0.27840    -3.91771   -11.44200
  Hartree   670.89318  1852.62661  1127.57221    -0.28550    -0.96331    -5.91896
  E(xc)    -150.39173  -148.22628  -148.27853     0.00018    -0.01562    -0.02751
  Local    -937.07480 -3727.57914 -2201.66590     0.57129     4.32403    16.41215
  n-local   -97.19518  -103.33152  -103.31926    -0.00056     0.04539     0.07973
  augment    26.57422    23.82560    23.82634    -0.00025     0.02123     0.03575
  Kinetic   687.96400   623.22873   623.26597    -0.00674     0.49906     0.84231
  Fock        0.00000     0.00000     0.00000     0.00000     0.00000     0.00000
  vdW        -0.00000     0.04208     0.00686    -0.00002    -0.00001    -0.00009
  -------------------------------------------------------------------------------------
  Total      -0.02159     1.64878     1.40731    -0.00001    -0.00694    -0.01863
  in kB      -0.00081     0.06161     0.05259    -0.00000    -0.00026    -0.00070
  external pressure =        0.04 kB  Pullay stress =        0.00 kB


 VOLUME and BASIS-vectors are now :
 -----------------------------------------------------------------------------
  energy-cutoff  :     1000.00
  volume of cell :    42875.00
      direct lattice vectors                 reciprocal lattice vectors
    35.000000000  0.000000000  0.000000000     0.028571429  0.000000000  0.000000000
     0.000000000 35.000000000  0.000000000     0.000000000  0.028571429  0.000000000
     0.000000000  0.000000000 35.000000000     0.000000000  0.000000000  0.028571429

  length of vectors
    35.000000000 35.000000000 35.000000000     0.028571429  0.028571429  0.028571429


 FORCES acting on ions
    electron-ion (+dipol)            ewald-force                    non-local-force                 convergence-correction
 -----------------------------------------------------------------------------------------------
   -.192E-01 0.503E+02 0.141E+00   0.192E-01 -.506E+02 -.142E+00   0.833E-05 0.916E-01 0.574E-03   0.166E-07 -.107E-06 -.225E-07
   0.298E-01 -.673E+02 -.149E+00   -.298E-01 0.672E+02 0.150E+00   -.292E-04 0.578E-01 0.134E-03   0.559E-08 -.233E-06 -.895E-06
   -.741E-01 -.144E+03 0.571E+00   0.743E-01 0.208E+03 -.566E+00   -.232E-03 -.637E+02 -.606E-02   -.248E-07 0.426E-05 -.134E-06
   -.138E-01 0.329E+03 0.984E-01   0.138E-01 -.394E+03 -.983E-01   0.423E-05 0.645E+02 -.764E-05   0.103E-06 0.980E-06 0.295E-07
   0.409E+01 -.830E+02 -.311E+03   -.493E+01 0.822E+02 0.376E+03   0.835E+00 0.798E+00 -.642E+02   -.365E-07 0.326E-06 0.361E-05
   -.401E+01 -.868E+02 0.311E+03   0.485E+01 0.871E+02 -.375E+03   -.835E+00 -.181E+00 0.642E+02   -.200E-07 0.186E-06 -.453E-05
 -----------------------------------------------------------------------------------------------
   0.755E-03 -.158E+01 -.352E-03   0.000E+00 0.142E-13 0.000E+00   -.727E-03 0.158E+01 -.404E-04   0.441E-07 0.542E-05 -.194E-05
 
 
 POSITION                                       TOTAL-FORCE (eV/Angst)
 -----------------------------------------------------------------------------------
      0.00000      0.05699      0.00000        -0.000007     -0.119728     -0.000109
     34.99851      4.12718      0.00754         0.000000     -0.023240      0.001709
      0.00000      1.22721      0.00000         0.000060      0.554877     -0.001316
      0.00000     33.88677      0.00000        -0.000003     -0.533085      0.000225
     34.98327      4.11833      1.17763        -0.008063      0.057268      0.610601
      0.01374      4.13603     33.83746         0.008013      0.063907     -0.611109
 -----------------------------------------------------------------------------------
    total drift:                                0.000027     -0.000388     -0.000394


--------------------------------------------------------------------------------------------------------



  FREE ENERGIE OF THE ION-ELECTRON SYSTEM (eV)
  ---------------------------------------------------
  free  energy   TOTEN  =       -46.01965622 eV

  energy  without entropy=      -46.01965622  energy(sigma->0) =      -46.01965622
 


--------------------------------------------------------------------------------------------------------


    POTLOK:  cpu time   15.3761: real time   15.4025


--------------------------------------------------------------------------------------------------------


 writing wavefunctions
     LOOP+:  cpu time 1774.0991: real time 1778.6859
    4ORBIT:  cpu time    0.0000: real time    0.0000

 total amount of memory used by VASP MPI-rank0  4007897. kBytes
=======================================================================

   base      :      30000. kBytes
   nonl-proj :     344787. kBytes
   fftplans  :     676185. kBytes
   grid      :    2932288. kBytes
   one-center:          9. kBytes
   wavefun   :      24628. kBytes
 
  
  
 General timing and accounting informations for this job:
 ========================================================
  
                  Total CPU time used (sec):     3190.805
                            User time (sec):     2994.988
                          System time (sec):      195.817
                         Elapsed time (sec):     3212.822
  
                   Maximum memory used (kb):     5429356.
                   Average memory used (kb):           0.
  
                          Minor page faults:     79103097
                          Major page faults:          951
                 Voluntary context switches:        14405
