 vasp.6.1.2 22Jul20 (build Jan  6 2021 09:55:43) gamma-only                      
 executed on             LinuxPGI date 2023.10.20  01:45:07
 running on   32 total cores
 distrk:  each k-point on   32 cores,    1 groups
 distr:  one band on NCORE=   1 cores,   32 groups


--------------------------------------------------------------------------------------------------------


 INCAR:
 POTCAR:    PAW_PBE C 08Apr2002                   
 POTCAR:    PAW_PBE O 08Apr2002                   
 -----------------------------------------------------------------------------
|                                                                             |
|           W    W    AA    RRRRR   N    N  II  N    N   GGGG   !!!           |
|           W    W   A  A   R    R  NN   N  II  NN   N  G    G  !!!           |
|           W    W  A    A  R    R  N N  N  II  N N  N  G       !!!           |
|           W WW W  AAAAAA  RRRRR   N  N N  II  N  N N  G  GGG   !            |
|           WW  WW  A    A  R   R   N   NN  II  N   NN  G    G                |
|           W    W  A    A  R    R  N    N  II  N    N   GGGG   !!!           |
|                                                                             |
|     For optimal performance we recommend to set                             |
|       NCORE = 4 - approx SQRT(number of cores).                             |
|     NCORE specifies how many cores store one orbital (NPAR=cpu/NCORE).      |
|     This setting can greatly improve the performance of VASP for DFT.       |
|     The default, NCORE=1 might be grossly inefficient on modern             |
|     multi-core architectures or massively parallel machines. Do your        |
|     own testing!!!!                                                         |
|     Unfortunately you need to use the default for GW and RPA                |
|     calculations (for HF NCORE is supported but not extensively tested      |
|     yet).                                                                   |
|                                                                             |
 -----------------------------------------------------------------------------

 POTCAR:    PAW_PBE C 08Apr2002                   
   VRHFIN =C: s2p2                                                                                  
   LEXCH  = PE                                                                                      
   EATOM  =   147.1560 eV,   10.8157 Ry                                                             
                                                                                                    
   TITEL  = PAW_PBE C 08Apr2002                                                                     
   LULTRA =        F    use ultrasoft PP ?                                                          
   IUNSCR =        1    unscreen: 0-lin 1-nonlin 2-no                                               
   RPACOR =    1.200    partial core radius                                                         
   POMASS =   12.011; ZVAL   =    4.000    mass and valenz                                          
   RCORE  =    1.500    outmost cutoff radius                                                       
   RWIGS  =    1.630; RWIGS  =    0.863    wigner-seitz radius (au A)                               
   ENMAX  =  400.000; ENMIN  =  300.000 eV                                                          
   ICORE  =        2    local potential                                                             
   LCOR   =        T    correct aug charges                                                         
   LPAW   =        T    paw PP                                                                      
   EAUG   =  644.873                                                                                
   DEXC   =    0.000                                                                                
   RMAX   =    1.529    core radius for proj-oper                                                   
   RAUG   =    1.300    factor for augmentation sphere                                              
   RDEP   =    1.501    radius for radial grids                                                     
   RDEPT  =    1.300    core radius for aug-charge                                                  
                                                                                                    
   Atomic configuration                                                                             
    4 entries                                                                                       
     n  l   j            E        occ.                                                              
     1  0  0.50      -273.3789   2.0000                                                             
     2  0  0.50       -13.7508   2.0000                                                             
     2  1  0.50        -5.2854   2.0000                                                             
     3  2  1.50        -5.4423   0.0000                                                             
   Description                                                                                      
     l       E           TYP  RCUT    TYP  RCUT                                                     
     0    -13.7508458     23  1.200                                                                 
     0     -8.2022199     23  1.200                                                                 
     1     -5.2854383     23  1.500                                                                 
     1     34.0145650     23  1.500                                                                 
     2     -5.4423304      7  1.500                                                                 
  local pseudopotential read in
  partial core-charges read in
  partial kinetic energy density read in
  atomic valenz-charges read in
  non local Contribution for L=            0  read in
    real space projection operators read in
  non local Contribution for L=            0  read in
    real space projection operators read in
  non local Contribution for L=            1  read in
    real space projection operators read in
  non local Contribution for L=            1  read in
    real space projection operators read in
    PAW grid and wavefunctions read in
 
   number of l-projection  operators is LMAX  =            4
   number of lm-projection operators is LMMAX =            8
 
 POTCAR:    PAW_PBE O 08Apr2002                   
   VRHFIN =O: s2p4                                                                                  
   LEXCH  = PE                                                                                      
   EATOM  =   432.3788 eV,   31.7789 Ry                                                             
                                                                                                    
   TITEL  = PAW_PBE O 08Apr2002                                                                     
   LULTRA =        F    use ultrasoft PP ?                                                          
   IUNSCR =        1    unscreen: 0-lin 1-nonlin 2-no                                               
   RPACOR =    1.200    partial core radius                                                         
   POMASS =   16.000; ZVAL   =    6.000    mass and valenz                                          
   RCORE  =    1.520    outmost cutoff radius                                                       
   RWIGS  =    1.550; RWIGS  =    0.820    wigner-seitz radius (au A)                               
   ENMAX  =  400.000; ENMIN  =  300.000 eV                                                          
   ICORE  =        2    local potential                                                             
   LCOR   =        T    correct aug charges                                                         
   LPAW   =        T    paw PP                                                                      
   EAUG   =  605.392                                                                                
   DEXC   =    0.000                                                                                
   RMAX   =    1.553    core radius for proj-oper                                                   
   RAUG   =    1.300    factor for augmentation sphere                                              
   RDEP   =    1.550    radius for radial grids                                                     
   RDEPT  =    1.329    core radius for aug-charge                                                  
                                                                                                    
   Atomic configuration                                                                             
    4 entries                                                                                       
     n  l   j            E        occ.                                                              
     1  0  0.50      -514.6923   2.0000                                                             
     2  0  0.50       -23.9615   2.0000                                                             
     2  1  0.50        -9.0305   4.0000                                                             
     3  2  1.50        -9.5241   0.0000                                                             
   Description                                                                                      
     l       E           TYP  RCUT    TYP  RCUT                                                     
     0    -23.9615318     23  1.200                                                                 
     0     -9.5240782     23  1.200                                                                 
     1     -9.0304911     23  1.520                                                                 
     1      8.1634956     23  1.520                                                                 
     2     -9.5240782      7  1.500                                                                 
  local pseudopotential read in
  partial core-charges read in
  partial kinetic energy density read in
  kinetic energy density of atom read in
  atomic valenz-charges read in
  non local Contribution for L=            0  read in
    real space projection operators read in
  non local Contribution for L=            0  read in
    real space projection operators read in
  non local Contribution for L=            1  read in
    real space projection operators read in
  non local Contribution for L=            1  read in
    real space projection operators read in
    PAW grid and wavefunctions read in
 
   number of l-projection  operators is LMAX  =            4
   number of lm-projection operators is LMMAX =            8
 
  PAW_PBE C 08Apr2002                   :
 energy of atom  1       EATOM= -147.1560
 kinetic energy error for atom=    0.0010 (will be added to EATOM!!)
  PAW_PBE O 08Apr2002                   :
 energy of atom  2       EATOM= -432.3788
 kinetic energy error for atom=    0.0022 (will be added to EATOM!!)
 
 
 POSCAR:  C  O
  positions in cartesian coordinates
  No initial velocities read in
 exchange correlation table for  LEXCH =        8
   RHO(1)=    0.500       N(1)  =     2000
   RHO(2)=  100.500       N(2)  =     4000
 


--------------------------------------------------------------------------------------------------------


 ion  position               nearest neighbor table
   1  0.000  0.002  0.000-   3 1.17   4 1.17
   2  1.000  0.169  0.000-   5 1.17   6 1.17
   3  0.000  0.035  0.000-   1 1.17
   4  0.000  0.968  0.000-   1 1.17
   5  1.000  0.169  0.034-   2 1.17
   6  0.000  0.170  0.967-   2 1.17
 
  LATTYP: Found a simple cubic cell.
 ALAT       =    35.0000000000
  
  Lattice vectors:
  
 A1 = (  35.0000000000,   0.0000000000,   0.0000000000)
 A2 = (   0.0000000000,  35.0000000000,   0.0000000000)
 A3 = (   0.0000000000,   0.0000000000,  35.0000000000)


Analysis of symmetry for initial positions (statically):
=====================================================================
 Subroutine PRICEL returns:
 Original cell was already a primitive cell.
 

 Routine SETGRP: Setting up the symmetry group for a 
 simple cubic supercell.


 Subroutine GETGRP returns: Found  1 space group operations
 (whereof  1 operations were pure point group operations)
 out of a pool of 48 trial point group operations.


The static configuration has the point symmetry C_1 .


Analysis of symmetry for dynamics (positions and initial velocities):
=====================================================================
 Subroutine PRICEL returns:
 Original cell was already a primitive cell.
 

 Routine SETGRP: Setting up the symmetry group for a 
 simple cubic supercell.


 Subroutine GETGRP returns: Found  1 space group operations
 (whereof  1 operations were pure point group operations)
 out of a pool of 48 trial point group operations.


The dynamic configuration has the point symmetry C_1 .


 Subroutine INISYM returns: Found  1 space group operations
 (whereof  1 operations are pure point group operations),
 and found     1 'primitive' translations


----------------------------------------------------------------------------------------

                                     Primitive cell                                     

  volume of cell :   42875.0000

  direct lattice vectors                    reciprocal lattice vectors
    35.000000000  0.000000000  0.000000000     0.028571429  0.000000000  0.000000000
     0.000000000 35.000000000  0.000000000     0.000000000  0.028571429  0.000000000
     0.000000000  0.000000000 35.000000000     0.000000000  0.000000000  0.028571429

  length of vectors
    35.000000000 35.000000000 35.000000000     0.028571429  0.028571429  0.028571429

  position of ions in fractional coordinates (direct lattice)
     0.000000000  0.001628171  0.000000000
     0.999957287  0.169347898  0.000215536
     0.000000000  0.035063029  0.000000000
     0.000000000  0.968193314  0.000000000
     0.999522117  0.169095043  0.033646605
     0.000392457  0.169600752  0.966784468

  ion indices of the primitive-cell ions
   primitive index   ion index
                 1           1
                 2           2
                 3           3
                 4           4
                 5           5
                 6           6

----------------------------------------------------------------------------------------

 
 
 KPOINTS: g                                       

Automatic generation of k-mesh.
Space group operators:
 irot       det(A)        alpha          n_x          n_y          n_z        tau_x        tau_y        tau_z
    1     1.000000     0.000000     1.000000     0.000000     0.000000     0.000000     0.000000     0.000000
 
 Subroutine IBZKPT returns following result:
 ===========================================
 
 Found      1 irreducible k-points:
 
 Following reciprocal coordinates:
            Coordinates               Weight
  0.000000  0.000000  0.000000      1.000000
 
 Following cartesian coordinates:
            Coordinates               Weight
  0.000000  0.000000  0.000000      1.000000
 


--------------------------------------------------------------------------------------------------------




 Dimension of arrays:
   k-points           NKPTS =      1   k-points in BZ     NKDIM =      1   number of bands    NBANDS=     32
   number of dos      NEDOS =    301   number of ions     NIONS =      6
   non local maximal  LDIM  =      4   non local SUM 2l+1 LMDIM =      8
   total plane-waves  NPLWV = ******
   max r-space proj   IRMAX =      1   max aug-charges    IRDMAX=  16541
   dimension x,y,z NGX =   378 NGY =  378 NGZ =  378
   dimension x,y,z NGXF=   756 NGYF=  756 NGZF=  756
   support grid    NGXF=   756 NGYF=  756 NGZF=  756
   ions per type =               2   4
   NGX,Y,Z   is equivalent  to a cutoff of  17.95, 17.95, 17.95 a.u.
   NGXF,Y,Z  is equivalent  to a cutoff of  35.91, 35.91, 35.91 a.u.

 SYSTEM =  C                                       
 POSCAR =   C  O                                   

 Startparameter for this run:
   NWRITE =      2    write-flag & timer
   PREC   = acc       normal or accurate (medium, high low for compatibility)
   ISTART =      0    job   : 0-new  1-cont  2-samecut
   ICHARG =      2    charge: 1-file 2-atom 10-const
   ISPIN  =      1    spin polarized calculation?
   LNONCOLLINEAR =      F non collinear calculations
   LSORBIT =      F    spin-orbit coupling
   INIWAV =      1    electr: 0-lowe 1-rand  2-diag
   LASPH  =      T    aspherical Exc in radial PAW
   METAGGA=      F    non-selfconsistent MetaGGA calc.

 Electronic Relaxation 1
   ENCUT  = 1000.0 eV  73.50 Ry    8.57 a.u.  90.25 90.25 90.25*2*pi/ulx,y,z
   ENINI  = 1000.0     initial cutoff
   ENAUG  =  644.9 eV  augmentation charge cutoff
   NELM   =     60;   NELMIN=  2; NELMDL= -5     # of ELM steps 
   EDIFF  = 0.1E-06   stopping-criterion for ELM
   LREAL  =      F    real-space projection
   NLSPLINE    = F    spline interpolate recip. space projectors
   LCOMPAT=      F    compatible to vasp.4.4
   GGA_COMPAT  = T    GGA compatible to vasp.4.4-vasp.4.6
   LMAXPAW     = -100 max onsite density
   LMAXMIX     =    2 max onsite mixed and CHGCAR
   VOSKOWN=      0    Vosko Wilk Nusair interpolation
   ROPT   =    0.00000   0.00000
 Ionic relaxation
   EDIFFG = 0.1E-05   stopping-criterion for IOM
   NSW    =      0    number of steps for IOM
   NBLOCK =      1;   KBLOCK =      1    inner block; outer block 
   IBRION =     -1    ionic relax: 0-MD 1-quasi-New 2-CG
   NFREE  =      0    steps in history (QN), initial steepest desc. (CG)
   ISIF   =      2    stress and relaxation
   IWAVPR =     10    prediction:  0-non 1-charg 2-wave 3-comb
   ISYM   =      2    0-nonsym 1-usesym 2-fastsym
   LCORR  =      T    Harris-Foulkes like correction to forces

   POTIM  = 0.5000    time-step for ionic-motion
   TEIN   =    0.0    initial temperature
   TEBEG  =    0.0;   TEEND  =   0.0 temperature during run
   SMASS  =  -3.00    Nose mass-parameter (am)
   estimated Nose-frequenzy (Omega)   =  0.10E-29 period in steps = 0.13E+47 mass=  -0.280E-25a.u.
   SCALEE = 1.0000    scale energy and forces
   NPACO  =    256;   APACO  = 16.0  distance and # of slots for P.C.
   PSTRESS=    0.0 pullay stress

  Mass of Ions in am
   POMASS =  12.01 16.00
  Ionic Valenz
   ZVAL   =   4.00  6.00
  Atomic Wigner-Seitz radii
   RWIGS  =  -1.00 -1.00
  virtual crystal weights 
   VCA    =   1.00  1.00
   NELECT =      32.0000    total number of electrons
   NUPDOWN=      -1.0000    fix difference up-down

 DOS related values:
   EMIN   =  10.00;   EMAX   =-10.00  energy-range for DOS
   EFERMI =   0.00
   ISMEAR =     0;   SIGMA  =   0.01  broadening in eV -4-tet -1-fermi 0-gaus

 Electronic relaxation 2 (details)
   IALGO  =     38    algorithm
   LDIAG  =      T    sub-space diagonalisation (order eigenvalues)
   LSUBROT=      F    optimize rotation matrix (better conditioning)
   TURBO    =      0    0=normal 1=particle mesh
   IRESTART =      0    0=no restart 2=restart with 2 vectors
   NREBOOT  =      0    no. of reboots
   NMIN     =      0    reboot dimension
   EREF     =   0.00    reference energy to select bands
   IMIX   =      4    mixing-type and parameters
     AMIX     =   0.40;   BMIX     =  1.00
     AMIX_MAG =   1.60;   BMIX_MAG =  1.00
     AMIN     =   0.10
     WC   =   100.;   INIMIX=   1;  MIXPRE=   1;  MAXMIX= -45

 Intra band minimization:
   WEIMIN = 0.0000     energy-eigenvalue tresh-hold
   EBREAK =  0.78E-09  absolut break condition
   DEPER  =   0.30     relativ break condition  

   TIME   =   0.40     timestep for ELM

  volume/ion in A,a.u.               =    7145.83     48222.46
  Fermi-wavevector in a.u.,A,eV,Ry     =   0.148499  0.280622  0.300035  0.022052
  Thomas-Fermi vector in A             =   0.821704
 
 Write flags
   LWAVE        =      T    write WAVECAR
   LDOWNSAMPLE  =      F    k-point downsampling of WAVECAR
   LCHARG       =      T    write CHGCAR
   LVTOT        =      F    write LOCPOT, total local potential
   LVHAR        =      F    write LOCPOT, Hartree potential only
   LELF         =      F    write electronic localiz. function (ELF)
   LORBIT       =      0    0 simple, 1 ext, 2 COOP (PROOUT), +10 PAW based schemes


 Dipole corrections
   LMONO  =      F    monopole corrections only (constant potential shift)
   LDIPOL =      F    correct potential (dipole corrections)
   IDIPOL =      4    1-x, 2-y, 3-z, 4-all directions 
   EPSILON=  1.0000000 bulk dielectric constant

 Exchange correlation treatment:
   GGA     =    --    GGA type
   LEXCH   =     8    internal setting for exchange type
   VOSKOWN=      0    Vosko Wilk Nusair interpolation
   LHFCALC =     F    Hartree Fock is set to
   LHFONE  =     F    Hartree Fock one center treatment
   AEXX    =    0.0000 exact exchange contribution

 Linear response parameters
   LEPSILON=     F    determine dielectric tensor
   LRPA    =     F    only Hartree local field effects (RPA)
   LNABLA  =     F    use nabla operator in PAW spheres
   LVEL    =     F    velocity operator in full k-point grid
   LINTERFAST=   F  fast interpolation
   KINTER  =     0    interpolate to denser k-point grid
   CSHIFT  =0.1000    complex shift for real part using Kramers Kronig
   OMEGAMAX=  -1.0    maximum frequency
   DEG_THRESHOLD= 0.2000000E-02 threshold for treating states as degnerate
   RTIME   =   -0.100 relaxation time in fs
  (WPLASMAI=    0.000 imaginary part of plasma frequency in eV, 0.658/RTIME)
   DFIELD  = 0.0000000 0.0000000 0.0000000 field for delta impulse in time
 
 Orbital magnetization related:
   ORBITALMAG=     F  switch on orbital magnetization
   LCHIMAG   =     F  perturbation theory with respect to B field
   DQ        =  0.001000  dq finite difference perturbation B field
   LLRAUG    =     F  two centre corrections for induced B field



--------------------------------------------------------------------------------------------------------


 Static calculation
 charge density and potential will be updated during run
 non-spin polarized calculation
 Variant of blocked Davidson
 Davidson routine will perform the subspace rotation
 perform sub-space diagonalisation
    after iterative eigenvector-optimisation
 modified Broyden-mixing scheme, WC =      100.0
 initial mixing is a Kerker type mixing with AMIX =  0.4000 and BMIX =      1.0000
 Hartree-type preconditioning will be used
 using additional bands            16
 reciprocal scheme for non local part
 use partial core corrections
 calculate Harris-corrections to forces 
   (improved forces if not selfconsistent)
 use gradient corrections 
 use of overlap-Matrix (Vanderbilt PP)
 Gauss-broadening in eV      SIGMA  =   0.01


--------------------------------------------------------------------------------------------------------


  energy-cutoff  :     1000.00
  volume of cell :    42875.00
      direct lattice vectors                 reciprocal lattice vectors
    35.000000000  0.000000000  0.000000000     0.028571429  0.000000000  0.000000000
     0.000000000 35.000000000  0.000000000     0.000000000  0.028571429  0.000000000
     0.000000000  0.000000000 35.000000000     0.000000000  0.000000000  0.028571429

  length of vectors
    35.000000000 35.000000000 35.000000000     0.028571429  0.028571429  0.028571429


 
 k-points in units of 2pi/SCALE and weight: g                                       
   0.00000000  0.00000000  0.00000000       1.000
 
 k-points in reciprocal lattice and weights: g                                       
   0.00000000  0.00000000  0.00000000       1.000
 
 position of ions in fractional coordinates (direct lattice) 
   0.00000000  0.00162817  0.00000000
   0.99995729  0.16934790  0.00021554
   0.00000000  0.03506303  0.00000000
   0.00000000  0.96819331  0.00000000
   0.99952212  0.16909504  0.03364661
   0.00039246  0.16960075  0.96678447
 
 position of ions in cartesian coordinates  (Angst):
   0.00000000  0.05698600  0.00000000
  34.99850504  5.92717643  0.00754377
   0.00000000  1.22720600  0.00000000
   0.00000000 33.88676600  0.00000000
  34.98327409  5.91832652  1.17763118
   0.01373599  5.93602633 33.83745636
 


--------------------------------------------------------------------------------------------------------


 use serial FFT for orbitals x direction half grid
 k-point   1 :   0.0000 0.0000 0.0000  plane waves: 1539209

 maximum and minimum number of plane-waves per node :   1539209  1539209

 maximum number of plane-waves:   1539209
 maximum index in each direction: 
   IXMAX=   90   IYMAX=   90   IZMAX=   90
   IXMIN=    0   IYMIN=  -90   IZMIN=  -90


 serial   3D FFT for wavefunctions
 parallel 3D FFT for charge:
    minimum data exchange during FFTs selected (reduces bandwidth)


 total amount of memory used by VASP MPI-rank0  4007897. kBytes
=======================================================================

   base      :      30000. kBytes
   nonl-proj :     344787. kBytes
   fftplans  :     676185. kBytes
   grid      :    2932288. kBytes
   one-center:          9. kBytes
   wavefun   :      24628. kBytes
 
     INWAV:  cpu time    0.0001: real time    0.0000
 Broyden mixing: mesh for mixing (old mesh)
   NGX =181   NGY =181   NGZ =181
  (NGX  =756   NGY  =756   NGZ  =756)
  gives a total of ****** points

 initial charge density was supplied:
 charge density of overlapping atoms calculated
 number of electron      32.0000000 magnetization 
 keeping initial charge density in first step


--------------------------------------------------------------------------------------------------------


 Maximum index for augmentation-charges           765 (set IRDMAX)


--------------------------------------------------------------------------------------------------------


 First call to EWALD:  gamma=   0.051
 Maximum number of real-space cells 3x 3x 3
 Maximum number of reciprocal cells 3x 3x 3

    FEWALD:  cpu time    0.0010: real time    0.0010


--------------------------------------- Iteration      1(   1)  ---------------------------------------


    POTLOK:  cpu time   15.0391: real time   15.0636
    SETDIJ:  cpu time    0.0492: real time    0.0495
     EDDAV:  cpu time   29.9595: real time   30.0176
       DOS:  cpu time    0.0008: real time    0.0008
    --------------------------------------------
      LOOP:  cpu time   45.0487: real time   45.1315

 eigenvalue-minimisations  :   128
 total energy-change (2. order) : 0.2885717E+03  (-0.6390154E+03)
 number of electron      32.0000000 magnetization 
 augmentation part       32.0000000 magnetization 

 Free energy of the ion-electron system (eV)
  ---------------------------------------------------
  alpha Z        PSCENC =         0.09979497
  Ewald energy   TEWEN  =      1670.51377903
  -Hartree energ DENC   =     -3280.90208728
  -exchange      EXHF   =         0.00000000
  -V(xc)+E(xc)   XCENC  =       135.14784719
  PAW double counting   =      1603.24200032    -1611.57549460
  entropy T*S    EENTRO =        -0.00036115
  eigenvalues    EBANDS =      -251.77049723
  atomic energy  EATOM  =      2023.81668923
  Solvation  Ediel_sol  =         0.00000000
  ---------------------------------------------------
  free energy    TOTEN  =       288.57167049 eV

  energy without entropy =      288.57203164  energy(sigma->0) =      288.57185106


--------------------------------------------------------------------------------------------------------




--------------------------------------- Iteration      1(   2)  ---------------------------------------


     EDDAV:  cpu time   30.0686: real time   30.1182
       DOS:  cpu time    0.0002: real time    0.0002
    --------------------------------------------
      LOOP:  cpu time   30.0688: real time   30.1184

 eigenvalue-minimisations  :   128
 total energy-change (2. order) :-0.2463310E+03  (-0.2463145E+03)
 number of electron      32.0000000 magnetization 
 augmentation part       32.0000000 magnetization 

 Free energy of the ion-electron system (eV)
  ---------------------------------------------------
  alpha Z        PSCENC =         0.09979497
  Ewald energy   TEWEN  =      1670.51377903
  -Hartree energ DENC   =     -3280.90208728
  -exchange      EXHF   =         0.00000000
  -V(xc)+E(xc)   XCENC  =       135.14784719
  PAW double counting   =      1603.24200032    -1611.57549460
  entropy T*S    EENTRO =        -0.00000000
  eigenvalues    EBANDS =      -498.10187491
  atomic energy  EATOM  =      2023.81668923
  Solvation  Ediel_sol  =         0.00000000
  ---------------------------------------------------
  free energy    TOTEN  =        42.24065395 eV

  energy without entropy =       42.24065395  energy(sigma->0) =       42.24065395


--------------------------------------------------------------------------------------------------------




--------------------------------------- Iteration      1(   3)  ---------------------------------------


     EDDAV:  cpu time   17.9688: real time   17.9985
       DOS:  cpu time    0.0002: real time    0.0002
    --------------------------------------------
      LOOP:  cpu time   17.9690: real time   17.9987

 eigenvalue-minimisations  :    64
 total energy-change (2. order) :-0.8655324E+02  (-0.8655324E+02)
 number of electron      32.0000000 magnetization 
 augmentation part       32.0000000 magnetization 

 Free energy of the ion-electron system (eV)
  ---------------------------------------------------
  alpha Z        PSCENC =         0.09979497
  Ewald energy   TEWEN  =      1670.51377903
  -Hartree energ DENC   =     -3280.90208728
  -exchange      EXHF   =         0.00000000
  -V(xc)+E(xc)   XCENC  =       135.14784719
  PAW double counting   =      1603.24200032    -1611.57549460
  entropy T*S    EENTRO =        -0.00000000
  eigenvalues    EBANDS =      -584.65511095
  atomic energy  EATOM  =      2023.81668923
  Solvation  Ediel_sol  =         0.00000000
  ---------------------------------------------------
  free energy    TOTEN  =       -44.31258209 eV

  energy without entropy =      -44.31258209  energy(sigma->0) =      -44.31258209


--------------------------------------------------------------------------------------------------------




--------------------------------------- Iteration      1(   4)  ---------------------------------------


     EDDAV:  cpu time   17.9764: real time   18.0068
       DOS:  cpu time    0.0002: real time    0.0002
    --------------------------------------------
      LOOP:  cpu time   17.9766: real time   18.0070

 eigenvalue-minimisations  :    64
 total energy-change (2. order) :-0.5116857E+01  (-0.5116857E+01)
 number of electron      32.0000000 magnetization 
 augmentation part       32.0000000 magnetization 

 Free energy of the ion-electron system (eV)
  ---------------------------------------------------
  alpha Z        PSCENC =         0.09979497
  Ewald energy   TEWEN  =      1670.51377903
  -Hartree energ DENC   =     -3280.90208728
  -exchange      EXHF   =         0.00000000
  -V(xc)+E(xc)   XCENC  =       135.14784719
  PAW double counting   =      1603.24200032    -1611.57549460
  entropy T*S    EENTRO =        -0.00000000
  eigenvalues    EBANDS =      -589.77196764
  atomic energy  EATOM  =      2023.81668923
  Solvation  Ediel_sol  =         0.00000000
  ---------------------------------------------------
  free energy    TOTEN  =       -49.42943877 eV

  energy without entropy =      -49.42943877  energy(sigma->0) =      -49.42943877


--------------------------------------------------------------------------------------------------------




--------------------------------------- Iteration      1(   5)  ---------------------------------------


     EDDAV:  cpu time   30.0669: real time   30.1172
       DOS:  cpu time    0.0002: real time    0.0002
    CHARGE:  cpu time    6.5161: real time    6.5254
    MIXING:  cpu time    0.3034: real time    0.3040
    --------------------------------------------
      LOOP:  cpu time   36.8867: real time   36.9468

 eigenvalue-minimisations  :   128
 total energy-change (2. order) :-0.8199648E-01  (-0.8199648E-01)
 number of electron      31.9999999 magnetization 
 augmentation part        3.0442680 magnetization 

 Broyden mixing:
  rms(total) = 0.13490E+01    rms(broyden)= 0.13490E+01
  rms(prec ) = 0.13770E+01
  weight for this iteration     100.00

 Free energy of the ion-electron system (eV)
  ---------------------------------------------------
  alpha Z        PSCENC =         0.09979497
  Ewald energy   TEWEN  =      1670.51377903
  -Hartree energ DENC   =     -3280.90208728
  -exchange      EXHF   =         0.00000000
  -V(xc)+E(xc)   XCENC  =       135.14784719
  PAW double counting   =      1603.24200032    -1611.57549460
  entropy T*S    EENTRO =        -0.00000000
  eigenvalues    EBANDS =      -589.85396412
  atomic energy  EATOM  =      2023.81668923
  Solvation  Ediel_sol  =         0.00000000
  ---------------------------------------------------
  free energy    TOTEN  =       -49.51143525 eV

  energy without entropy =      -49.51143525  energy(sigma->0) =      -49.51143525


--------------------------------------------------------------------------------------------------------




--------------------------------------- Iteration      1(   6)  ---------------------------------------


    POTLOK:  cpu time   14.8022: real time   14.8269
    SETDIJ:  cpu time    0.0485: real time    0.0485
     EDDAV:  cpu time   17.9814: real time   18.0135
       DOS:  cpu time    0.0096: real time    0.0096
    CHARGE:  cpu time    6.3001: real time    6.3107
    MIXING:  cpu time    0.3131: real time    0.3172
    --------------------------------------------
      LOOP:  cpu time   39.4548: real time   39.5264

 eigenvalue-minimisations  :    64
 total energy-change (2. order) : 0.3132811E+01  (-0.2014878E+01)
 number of electron      31.9999999 magnetization 
 augmentation part        2.6607721 magnetization 

 Broyden mixing:
  rms(total) = 0.61884E+00    rms(broyden)= 0.61884E+00
  rms(prec ) = 0.62474E+00
  weight for this iteration     100.00

 eigenvalues of (default mixing * dielectric matrix)
  average eigenvalue GAMMA=   1.0007
  1.0007

 Free energy of the ion-electron system (eV)
  ---------------------------------------------------
  alpha Z        PSCENC =         0.09979497
  Ewald energy   TEWEN  =      1670.51377903
  -Hartree energ DENC   =     -3334.14663250
  -exchange      EXHF   =         0.00000000
  -V(xc)+E(xc)   XCENC  =       138.33342361
  PAW double counting   =      2134.45377426    -2143.62912170
  entropy T*S    EENTRO =        -0.00000000
  eigenvalues    EBANDS =      -535.82033100
  atomic energy  EATOM  =      2023.81668923
  Solvation  Ediel_sol  =         0.00000000
  ---------------------------------------------------
  free energy    TOTEN  =       -46.37862410 eV

  energy without entropy =      -46.37862410  energy(sigma->0) =      -46.37862410


--------------------------------------------------------------------------------------------------------




--------------------------------------- Iteration      1(   7)  ---------------------------------------


    POTLOK:  cpu time   14.7184: real time   14.7433
    SETDIJ:  cpu time    0.0484: real time    0.0484
     EDDAV:  cpu time   29.5847: real time   29.6430
       DOS:  cpu time    0.0086: real time    0.0086
    CHARGE:  cpu time    6.4247: real time    6.4336
    MIXING:  cpu time    0.3194: real time    0.3207
    --------------------------------------------
      LOOP:  cpu time   51.1042: real time   51.1977

 eigenvalue-minimisations  :   128
 total energy-change (2. order) : 0.2844439E+00  (-0.7910584E-01)
 number of electron      31.9999999 magnetization 
 augmentation part        2.7023291 magnetization 

 Broyden mixing:
  rms(total) = 0.34523E+00    rms(broyden)= 0.34523E+00
  rms(prec ) = 0.34853E+00
  weight for this iteration     100.00

 eigenvalues of (default mixing * dielectric matrix)
  average eigenvalue GAMMA=   1.6319
  0.9095  2.3543

 Free energy of the ion-electron system (eV)
  ---------------------------------------------------
  alpha Z        PSCENC =         0.09979497
  Ewald energy   TEWEN  =      1670.51377903
  -Hartree energ DENC   =     -3343.38648018
  -exchange      EXHF   =         0.00000000
  -V(xc)+E(xc)   XCENC  =       138.68933646
  PAW double counting   =      2485.24363434    -2494.26929268
  entropy T*S    EENTRO =        -0.00000000
  eigenvalues    EBANDS =      -526.80164134
  atomic energy  EATOM  =      2023.81668923
  Solvation  Ediel_sol  =         0.00000000
  ---------------------------------------------------
  free energy    TOTEN  =       -46.09418018 eV

  energy without entropy =      -46.09418018  energy(sigma->0) =      -46.09418018


--------------------------------------------------------------------------------------------------------




--------------------------------------- Iteration      1(   8)  ---------------------------------------


    POTLOK:  cpu time   14.8402: real time   14.8653
    SETDIJ:  cpu time    0.0484: real time    0.0485
     EDDAV:  cpu time   29.6296: real time   29.6796
       DOS:  cpu time    0.0020: real time    0.0020
    CHARGE:  cpu time    6.4148: real time    6.4241
    MIXING:  cpu time    0.3458: real time    0.3465
    --------------------------------------------
      LOOP:  cpu time   51.2808: real time   51.3659

 eigenvalue-minimisations  :   128
 total energy-change (2. order) : 0.1118047E+00  (-0.4448795E-01)
 number of electron      31.9999999 magnetization 
 augmentation part        2.6832262 magnetization 

 Broyden mixing:
  rms(total) = 0.71743E-01    rms(broyden)= 0.71743E-01
  rms(prec ) = 0.73459E-01
  weight for this iteration     100.00

 eigenvalues of (default mixing * dielectric matrix)
  average eigenvalue GAMMA=   1.4193
  2.4353  0.9113  0.9113

 Free energy of the ion-electron system (eV)
  ---------------------------------------------------
  alpha Z        PSCENC =         0.09979497
  Ewald energy   TEWEN  =      1670.51377903
  -Hartree energ DENC   =     -3360.34495130
  -exchange      EXHF   =         0.00000000
  -V(xc)+E(xc)   XCENC  =       139.53792134
  PAW double counting   =      3064.82153984    -3073.82978774
  entropy T*S    EENTRO =        -0.00000000
  eigenvalues    EBANDS =      -510.59736084
  atomic energy  EATOM  =      2023.81668923
  Solvation  Ediel_sol  =         0.00000000
  ---------------------------------------------------
  free energy    TOTEN  =       -45.98237546 eV

  energy without entropy =      -45.98237546  energy(sigma->0) =      -45.98237546


--------------------------------------------------------------------------------------------------------




--------------------------------------- Iteration      1(   9)  ---------------------------------------


    POTLOK:  cpu time   14.7299: real time   14.7551
    SETDIJ:  cpu time    0.0484: real time    0.0485
     EDDAV:  cpu time   29.5814: real time   29.6311
       DOS:  cpu time    0.0003: real time    0.0003
    CHARGE:  cpu time    6.3932: real time    6.4031
    MIXING:  cpu time    0.3463: real time    0.3470
    --------------------------------------------
      LOOP:  cpu time   51.0995: real time   51.1851

 eigenvalue-minimisations  :   128
 total energy-change (2. order) : 0.6250736E-02  (-0.3115894E-02)
 number of electron      31.9999999 magnetization 
 augmentation part        2.6761140 magnetization 

 Broyden mixing:
  rms(total) = 0.31705E-01    rms(broyden)= 0.31705E-01
  rms(prec ) = 0.32677E-01
  weight for this iteration     100.00

 eigenvalues of (default mixing * dielectric matrix)
  average eigenvalue GAMMA=   1.4653
  2.4413  0.9884  1.2159  1.2159

 Free energy of the ion-electron system (eV)
  ---------------------------------------------------
  alpha Z        PSCENC =         0.09979497
  Ewald energy   TEWEN  =      1670.51377903
  -Hartree energ DENC   =     -3359.88427946
  -exchange      EXHF   =         0.00000000
  -V(xc)+E(xc)   XCENC  =       139.51455513
  PAW double counting   =      3103.75931707    -3112.73612521
  entropy T*S    EENTRO =        -0.00000000
  eigenvalues    EBANDS =      -511.05985549
  atomic energy  EATOM  =      2023.81668923
  Solvation  Ediel_sol  =         0.00000000
  ---------------------------------------------------
  free energy    TOTEN  =       -45.97612472 eV

  energy without entropy =      -45.97612472  energy(sigma->0) =      -45.97612472


--------------------------------------------------------------------------------------------------------




--------------------------------------- Iteration      1(  10)  ---------------------------------------


    POTLOK:  cpu time   14.7418: real time   14.7664
    SETDIJ:  cpu time    0.0486: real time    0.0486
     EDDAV:  cpu time   29.6861: real time   29.7413
       DOS:  cpu time    0.0066: real time    0.0066
    CHARGE:  cpu time    6.4015: real time    6.4104
    MIXING:  cpu time    0.3694: real time    0.3701
    --------------------------------------------
      LOOP:  cpu time   51.2541: real time   51.3434

 eigenvalue-minimisations  :   128
 total energy-change (2. order) :-0.2719588E-02  (-0.5199882E-03)
 number of electron      31.9999999 magnetization 
 augmentation part        2.6799277 magnetization 

 Broyden mixing:
  rms(total) = 0.88542E-02    rms(broyden)= 0.88542E-02
  rms(prec ) = 0.10060E-01
  weight for this iteration     100.00

 eigenvalues of (default mixing * dielectric matrix)
  average eigenvalue GAMMA=   1.4796
  2.3747  0.9183  0.9183  1.5932  1.5932

 Free energy of the ion-electron system (eV)
  ---------------------------------------------------
  alpha Z        PSCENC =         0.09979497
  Ewald energy   TEWEN  =      1670.51377903
  -Hartree energ DENC   =     -3359.40790463
  -exchange      EXHF   =         0.00000000
  -V(xc)+E(xc)   XCENC  =       139.46651010
  PAW double counting   =      3114.04956547    -3122.98511994
  entropy T*S    EENTRO =        -0.00000000
  eigenvalues    EBANDS =      -511.53215855
  atomic energy  EATOM  =      2023.81668923
  Solvation  Ediel_sol  =         0.00000000
  ---------------------------------------------------
  free energy    TOTEN  =       -45.97884431 eV

  energy without entropy =      -45.97884431  energy(sigma->0) =      -45.97884431


--------------------------------------------------------------------------------------------------------




--------------------------------------- Iteration      1(  11)  ---------------------------------------


    POTLOK:  cpu time   14.8207: real time   14.8457
    SETDIJ:  cpu time    0.0486: real time    0.0486
     EDDAV:  cpu time   17.9578: real time   17.9873
       DOS:  cpu time    0.0053: real time    0.0053
    CHARGE:  cpu time    6.4466: real time    6.4570
    MIXING:  cpu time    0.3855: real time    0.3862
    --------------------------------------------
      LOOP:  cpu time   39.6646: real time   39.7301

 eigenvalue-minimisations  :    64
 total energy-change (2. order) :-0.3386237E-02  (-0.5188777E-04)
 number of electron      31.9999999 magnetization 
 augmentation part        2.6791842 magnetization 

 Broyden mixing:
  rms(total) = 0.41284E-02    rms(broyden)= 0.41284E-02
  rms(prec ) = 0.53229E-02
  weight for this iteration     100.00

 eigenvalues of (default mixing * dielectric matrix)
  average eigenvalue GAMMA=   1.6014
  2.8629  2.4654  1.4184  1.0424  0.9098  0.9098

 Free energy of the ion-electron system (eV)
  ---------------------------------------------------
  alpha Z        PSCENC =         0.09979497
  Ewald energy   TEWEN  =      1670.51377903
  -Hartree energ DENC   =     -3359.90099718
  -exchange      EXHF   =         0.00000000
  -V(xc)+E(xc)   XCENC  =       139.47393321
  PAW double counting   =      3112.87116348    -3121.79698916
  entropy T*S    EENTRO =        -0.00000000
  eigenvalues    EBANDS =      -511.05960414
  atomic energy  EATOM  =      2023.81668923
  Solvation  Ediel_sol  =         0.00000000
  ---------------------------------------------------
  free energy    TOTEN  =       -45.98223055 eV

  energy without entropy =      -45.98223055  energy(sigma->0) =      -45.98223055


--------------------------------------------------------------------------------------------------------




--------------------------------------- Iteration      1(  12)  ---------------------------------------


    POTLOK:  cpu time   14.7801: real time   14.8050
    SETDIJ:  cpu time    0.0485: real time    0.0485
     EDDAV:  cpu time   23.7544: real time   23.8025
       DOS:  cpu time    0.0072: real time    0.0072
    CHARGE:  cpu time    6.3192: real time    6.3283
    MIXING:  cpu time    0.4113: real time    0.4165
    --------------------------------------------
      LOOP:  cpu time   45.3207: real time   45.4081

 eigenvalue-minimisations  :    96
 total energy-change (2. order) :-0.3743113E-02  (-0.4977353E-04)
 number of electron      31.9999999 magnetization 
 augmentation part        2.6786379 magnetization 

 Broyden mixing:
  rms(total) = 0.26548E-02    rms(broyden)= 0.26548E-02
  rms(prec ) = 0.33562E-02
  weight for this iteration     100.00

 eigenvalues of (default mixing * dielectric matrix)
  average eigenvalue GAMMA=   1.6612
  3.3334  2.4352  1.5684  1.5684  0.9265  0.9265  0.8700

 Free energy of the ion-electron system (eV)
  ---------------------------------------------------
  alpha Z        PSCENC =         0.09979497
  Ewald energy   TEWEN  =      1670.51377903
  -Hartree energ DENC   =     -3360.61622467
  -exchange      EXHF   =         0.00000000
  -V(xc)+E(xc)   XCENC  =       139.48763586
  PAW double counting   =      3114.05909759    -3122.97855589
  entropy T*S    EENTRO =        -0.00000000
  eigenvalues    EBANDS =      -510.36818978
  atomic energy  EATOM  =      2023.81668923
  Solvation  Ediel_sol  =         0.00000000
  ---------------------------------------------------
  free energy    TOTEN  =       -45.98597366 eV

  energy without entropy =      -45.98597366  energy(sigma->0) =      -45.98597366


--------------------------------------------------------------------------------------------------------




--------------------------------------- Iteration      1(  13)  ---------------------------------------


    POTLOK:  cpu time   14.7842: real time   14.8117
    SETDIJ:  cpu time    0.0485: real time    0.0485
     EDDAV:  cpu time   23.7227: real time   23.7624
       DOS:  cpu time    0.0006: real time    0.0006
    CHARGE:  cpu time    6.4779: real time    6.4875
    MIXING:  cpu time    0.4204: real time    0.4211
    --------------------------------------------
      LOOP:  cpu time   45.4542: real time   45.5317

 eigenvalue-minimisations  :    96
 total energy-change (2. order) :-0.2616797E-02  (-0.2435641E-04)
 number of electron      31.9999999 magnetization 
 augmentation part        2.6788281 magnetization 

 Broyden mixing:
  rms(total) = 0.12730E-02    rms(broyden)= 0.12730E-02
  rms(prec ) = 0.18195E-02
  weight for this iteration     100.00

 eigenvalues of (default mixing * dielectric matrix)
  average eigenvalue GAMMA=   1.8046
  4.2786  2.5296  2.3893  1.5109  1.0242  0.9092  0.9092  0.8859

 Free energy of the ion-electron system (eV)
  ---------------------------------------------------
  alpha Z        PSCENC =         0.09979497
  Ewald energy   TEWEN  =      1670.51377903
  -Hartree energ DENC   =     -3361.01216116
  -exchange      EXHF   =         0.00000000
  -V(xc)+E(xc)   XCENC  =       139.49165055
  PAW double counting   =      3113.25894658    -3122.18024725
  entropy T*S    EENTRO =        -0.00000000
  eigenvalues    EBANDS =      -509.97704241
  atomic energy  EATOM  =      2023.81668923
  Solvation  Ediel_sol  =         0.00000000
  ---------------------------------------------------
  free energy    TOTEN  =       -45.98859046 eV

  energy without entropy =      -45.98859046  energy(sigma->0) =      -45.98859046


--------------------------------------------------------------------------------------------------------




--------------------------------------- Iteration      1(  14)  ---------------------------------------


    POTLOK:  cpu time   14.7561: real time   14.7810
    SETDIJ:  cpu time    0.0485: real time    0.0486
     EDDAV:  cpu time   23.7425: real time   23.7892
       DOS:  cpu time    0.0090: real time    0.0090
    CHARGE:  cpu time    6.4939: real time    6.5030
    MIXING:  cpu time    0.4508: real time    0.4516
    --------------------------------------------
      LOOP:  cpu time   45.5008: real time   45.5823

 eigenvalue-minimisations  :    96
 total energy-change (2. order) :-0.1937207E-02  (-0.2166191E-04)
 number of electron      31.9999999 magnetization 
 augmentation part        2.6787591 magnetization 

 Broyden mixing:
  rms(total) = 0.92990E-03    rms(broyden)= 0.92990E-03
  rms(prec ) = 0.11696E-02
  weight for this iteration     100.00

 eigenvalues of (default mixing * dielectric matrix)
  average eigenvalue GAMMA=   1.8676
  5.1629  2.7610  2.4077  1.4547  1.4547  0.9201  0.9201  0.8636  0.8636

 Free energy of the ion-electron system (eV)
  ---------------------------------------------------
  alpha Z        PSCENC =         0.09979497
  Ewald energy   TEWEN  =      1670.51377903
  -Hartree energ DENC   =     -3361.31271750
  -exchange      EXHF   =         0.00000000
  -V(xc)+E(xc)   XCENC  =       139.49314848
  PAW double counting   =      3112.35659754    -3121.28044978
  entropy T*S    EENTRO =        -0.00000000
  eigenvalues    EBANDS =      -509.67736963
  atomic energy  EATOM  =      2023.81668923
  Solvation  Ediel_sol  =         0.00000000
  ---------------------------------------------------
  free energy    TOTEN  =       -45.99052766 eV

  energy without entropy =      -45.99052766  energy(sigma->0) =      -45.99052766


--------------------------------------------------------------------------------------------------------




--------------------------------------- Iteration      1(  15)  ---------------------------------------


    POTLOK:  cpu time   14.7294: real time   14.7544
    SETDIJ:  cpu time    0.0485: real time    0.0485
     EDDAV:  cpu time   29.6231: real time   29.6722
       DOS:  cpu time    0.0104: real time    0.0104
    CHARGE:  cpu time    6.4074: real time    6.4168
    MIXING:  cpu time    0.4756: real time    0.4764
    --------------------------------------------
      LOOP:  cpu time   51.2943: real time   51.3787

 eigenvalue-minimisations  :   128
 total energy-change (2. order) :-0.8079483E-03  (-0.3708261E-05)
 number of electron      31.9999999 magnetization 
 augmentation part        2.6786679 magnetization 

 Broyden mixing:
  rms(total) = 0.62114E-03    rms(broyden)= 0.62114E-03
  rms(prec ) = 0.77135E-03
  weight for this iteration     100.00

 eigenvalues of (default mixing * dielectric matrix)
  average eigenvalue GAMMA=   2.0361
  6.2899  3.2663  2.4155  2.2199  1.5501  0.9354  0.9354  1.0071  0.9021  0.8395

 Free energy of the ion-electron system (eV)
  ---------------------------------------------------
  alpha Z        PSCENC =         0.09979497
  Ewald energy   TEWEN  =      1670.51377903
  -Hartree energ DENC   =     -3361.40642062
  -exchange      EXHF   =         0.00000000
  -V(xc)+E(xc)   XCENC  =       139.49255666
  PAW double counting   =      3112.43222289    -3121.35563191
  entropy T*S    EENTRO =        -0.00000000
  eigenvalues    EBANDS =      -509.58432586
  atomic energy  EATOM  =      2023.81668923
  Solvation  Ediel_sol  =         0.00000000
  ---------------------------------------------------
  free energy    TOTEN  =       -45.99133561 eV

  energy without entropy =      -45.99133561  energy(sigma->0) =      -45.99133561


--------------------------------------------------------------------------------------------------------




--------------------------------------- Iteration      1(  16)  ---------------------------------------


    POTLOK:  cpu time   14.6963: real time   14.7207
    SETDIJ:  cpu time    0.0484: real time    0.0484
     EDDAV:  cpu time   17.8776: real time   17.9228
       DOS:  cpu time    0.0061: real time    0.0061
    CHARGE:  cpu time    6.4651: real time    6.4745
    MIXING:  cpu time    0.5166: real time    0.5176
    --------------------------------------------
      LOOP:  cpu time   39.6102: real time   39.6901

 eigenvalue-minimisations  :    64
 total energy-change (2. order) :-0.7924979E-03  (-0.3644664E-05)
 number of electron      31.9999999 magnetization 
 augmentation part        2.6786427 magnetization 

 Broyden mixing:
  rms(total) = 0.25997E-03    rms(broyden)= 0.25997E-03
  rms(prec ) = 0.34567E-03
  weight for this iteration     100.00

 eigenvalues of (default mixing * dielectric matrix)
  average eigenvalue GAMMA=   2.0414
  6.7282  3.5511  2.4920  2.2997  1.5722  1.2227  0.9436  0.9436  0.9338  0.9338
  0.8351

 Free energy of the ion-electron system (eV)
  ---------------------------------------------------
  alpha Z        PSCENC =         0.09979497
  Ewald energy   TEWEN  =      1670.51377903
  -Hartree energ DENC   =     -3361.45170905
  -exchange      EXHF   =         0.00000000
  -V(xc)+E(xc)   XCENC  =       139.49082626
  PAW double counting   =      3112.86728517    -3121.78911777
  entropy T*S    EENTRO =        -0.00000000
  eigenvalues    EBANDS =      -509.53967595
  atomic energy  EATOM  =      2023.81668923
  Solvation  Ediel_sol  =         0.00000000
  ---------------------------------------------------
  free energy    TOTEN  =       -45.99212811 eV

  energy without entropy =      -45.99212811  energy(sigma->0) =      -45.99212811


--------------------------------------------------------------------------------------------------------




--------------------------------------- Iteration      1(  17)  ---------------------------------------


    POTLOK:  cpu time   14.7273: real time   14.7519
    SETDIJ:  cpu time    0.0486: real time    0.0486
     EDDAV:  cpu time   29.5721: real time   29.6306
       DOS:  cpu time    0.0055: real time    0.0055
    CHARGE:  cpu time    6.5111: real time    6.5206
    MIXING:  cpu time    0.5346: real time    0.5355
    --------------------------------------------
      LOOP:  cpu time   51.3993: real time   51.4927

 eigenvalue-minimisations  :   128
 total energy-change (2. order) :-0.2445386E-03  (-0.6840571E-06)
 number of electron      31.9999999 magnetization 
 augmentation part        2.6786114 magnetization 

 Broyden mixing:
  rms(total) = 0.22803E-03    rms(broyden)= 0.22803E-03
  rms(prec ) = 0.27562E-03
  weight for this iteration     100.00

 eigenvalues of (default mixing * dielectric matrix)
  average eigenvalue GAMMA=   2.1733
  7.6458  4.1477  2.8119  2.4382  2.0891  1.5841  0.9494  0.9494  0.9520  0.8439
  0.8342  0.8342

 Free energy of the ion-electron system (eV)
  ---------------------------------------------------
  alpha Z        PSCENC =         0.09979497
  Ewald energy   TEWEN  =      1670.51377903
  -Hartree energ DENC   =     -3361.47092906
  -exchange      EXHF   =         0.00000000
  -V(xc)+E(xc)   XCENC  =       139.49080370
  PAW double counting   =      3112.90792463    -3121.82973628
  entropy T*S    EENTRO =        -0.00000000
  eigenvalues    EBANDS =      -509.52069887
  atomic energy  EATOM  =      2023.81668923
  Solvation  Ediel_sol  =         0.00000000
  ---------------------------------------------------
  free energy    TOTEN  =       -45.99237265 eV

  energy without entropy =      -45.99237265  energy(sigma->0) =      -45.99237265


--------------------------------------------------------------------------------------------------------




--------------------------------------- Iteration      1(  18)  ---------------------------------------


    POTLOK:  cpu time   14.7302: real time   14.7554
    SETDIJ:  cpu time    0.0484: real time    0.0484
     EDDAV:  cpu time   29.5480: real time   29.6048
       DOS:  cpu time    0.0010: real time    0.0010
    CHARGE:  cpu time    6.4528: real time    6.4620
    MIXING:  cpu time    0.5663: real time    0.5673
    --------------------------------------------
      LOOP:  cpu time   51.3466: real time   51.4390

 eigenvalue-minimisations  :   128
 total energy-change (2. order) :-0.2277906E-03  (-0.5898689E-06)
 number of electron      31.9999999 magnetization 
 augmentation part        2.6786301 magnetization 

 Broyden mixing:
  rms(total) = 0.86590E-04    rms(broyden)= 0.86590E-04
  rms(prec ) = 0.11315E-03
  weight for this iteration     100.00

 eigenvalues of (default mixing * dielectric matrix)
  average eigenvalue GAMMA=   2.2004
  8.1607  4.6234  3.0272  2.4442  2.2216  1.5561  1.1693  0.9431  0.9431  0.9197
  0.9197  0.8387  0.8387

 Free energy of the ion-electron system (eV)
  ---------------------------------------------------
  alpha Z        PSCENC =         0.09979497
  Ewald energy   TEWEN  =      1670.51377903
  -Hartree energ DENC   =     -3361.47852544
  -exchange      EXHF   =         0.00000000
  -V(xc)+E(xc)   XCENC  =       139.49018963
  PAW double counting   =      3112.74558546    -3121.66764042
  entropy T*S    EENTRO =        -0.00000000
  eigenvalues    EBANDS =      -509.51247290
  atomic energy  EATOM  =      2023.81668923
  Solvation  Ediel_sol  =         0.00000000
  ---------------------------------------------------
  free energy    TOTEN  =       -45.99260044 eV

  energy without entropy =      -45.99260044  energy(sigma->0) =      -45.99260044


--------------------------------------------------------------------------------------------------------




--------------------------------------- Iteration      1(  19)  ---------------------------------------


    POTLOK:  cpu time   14.6889: real time   14.7141
    SETDIJ:  cpu time    0.0485: real time    0.0485
     EDDAV:  cpu time   17.8624: real time   17.9026
       DOS:  cpu time    0.0002: real time    0.0002
    CHARGE:  cpu time    6.4024: real time    6.4118
    MIXING:  cpu time    0.6030: real time    0.6040
    --------------------------------------------
      LOOP:  cpu time   39.6054: real time   39.6811

 eigenvalue-minimisations  :    64
 total energy-change (2. order) :-0.6512154E-04  (-0.6652493E-07)
 number of electron      31.9999999 magnetization 
 augmentation part        2.6786311 magnetization 

 Broyden mixing:
  rms(total) = 0.54049E-04    rms(broyden)= 0.54049E-04
  rms(prec ) = 0.70672E-04
  weight for this iteration     100.00

 eigenvalues of (default mixing * dielectric matrix)
  average eigenvalue GAMMA=   2.2167
  8.4715  4.9529  3.2189  2.4391  2.3352  1.7228  1.6243  0.9604  0.9604  0.9367
  0.8914  0.8914  0.8160  0.8132

 Free energy of the ion-electron system (eV)
  ---------------------------------------------------
  alpha Z        PSCENC =         0.09979497
  Ewald energy   TEWEN  =      1670.51377903
  -Hartree energ DENC   =     -3361.48435119
  -exchange      EXHF   =         0.00000000
  -V(xc)+E(xc)   XCENC  =       139.49020367
  PAW double counting   =      3112.70460075    -3121.62677964
  entropy T*S    EENTRO =        -0.00000000
  eigenvalues    EBANDS =      -509.50660238
  atomic energy  EATOM  =      2023.81668923
  Solvation  Ediel_sol  =         0.00000000
  ---------------------------------------------------
  free energy    TOTEN  =       -45.99266556 eV

  energy without entropy =      -45.99266556  energy(sigma->0) =      -45.99266556


--------------------------------------------------------------------------------------------------------




--------------------------------------- Iteration      1(  20)  ---------------------------------------


    POTLOK:  cpu time   14.7136: real time   14.7383
    SETDIJ:  cpu time    0.0486: real time    0.0486
     EDDAV:  cpu time   29.4244: real time   29.4777
       DOS:  cpu time    0.0002: real time    0.0002
    CHARGE:  cpu time    6.4068: real time    6.4152
    MIXING:  cpu time    0.6341: real time    0.6353
    --------------------------------------------
      LOOP:  cpu time   51.2277: real time   51.3154

 eigenvalue-minimisations  :   128
 total energy-change (2. order) :-0.4039366E-04  (-0.3127697E-07)
 number of electron      31.9999999 magnetization 
 augmentation part        2.6786285 magnetization 

 Broyden mixing:
  rms(total) = 0.37957E-04    rms(broyden)= 0.37957E-04
  rms(prec ) = 0.46781E-04
  weight for this iteration     100.00

 eigenvalues of (default mixing * dielectric matrix)
  average eigenvalue GAMMA=   2.3064
  9.0013  5.6171  3.6280  2.7704  2.4258  2.1943  1.5609  1.0321  0.9274  0.9274
  0.9539  0.9539  0.9774  0.8437  0.7822

 Free energy of the ion-electron system (eV)
  ---------------------------------------------------
  alpha Z        PSCENC =         0.09979497
  Ewald energy   TEWEN  =      1670.51377903
  -Hartree energ DENC   =     -3361.48709655
  -exchange      EXHF   =         0.00000000
  -V(xc)+E(xc)   XCENC  =       139.49019465
  PAW double counting   =      3112.70996666    -3121.63214274
  entropy T*S    EENTRO =        -0.00000000
  eigenvalues    EBANDS =      -509.50389120
  atomic energy  EATOM  =      2023.81668923
  Solvation  Ediel_sol  =         0.00000000
  ---------------------------------------------------
  free energy    TOTEN  =       -45.99270595 eV

  energy without entropy =      -45.99270595  energy(sigma->0) =      -45.99270595


--------------------------------------------------------------------------------------------------------




--------------------------------------- Iteration      1(  21)  ---------------------------------------


    POTLOK:  cpu time   14.6868: real time   14.7117
    SETDIJ:  cpu time    0.0485: real time    0.0485
     EDDAV:  cpu time   17.8725: real time   17.9171
       DOS:  cpu time    0.0129: real time    0.0129
    CHARGE:  cpu time    6.4230: real time    6.4329
    MIXING:  cpu time    0.6671: real time    0.6682
    --------------------------------------------
      LOOP:  cpu time   39.7107: real time   39.7913

 eigenvalue-minimisations  :    64
 total energy-change (2. order) :-0.2636904E-04  (-0.2221234E-07)
 number of electron      31.9999999 magnetization 
 augmentation part        2.6786282 magnetization 

 Broyden mixing:
  rms(total) = 0.16803E-04    rms(broyden)= 0.16803E-04
  rms(prec ) = 0.21443E-04
  weight for this iteration     100.00

 eigenvalues of (default mixing * dielectric matrix)
  average eigenvalue GAMMA=   2.3398
  9.2692  5.9434  3.9700  2.9169  2.4466  2.2017  1.7961  1.5771  0.9532  0.9532
  0.9321  0.9321  0.9725  0.9157  0.8284  0.8284

 Free energy of the ion-electron system (eV)
  ---------------------------------------------------
  alpha Z        PSCENC =         0.09979497
  Ewald energy   TEWEN  =      1670.51377903
  -Hartree energ DENC   =     -3361.48764280
  -exchange      EXHF   =         0.00000000
  -V(xc)+E(xc)   XCENC  =       139.49012220
  PAW double counting   =      3112.72844759    -3121.65056116
  entropy T*S    EENTRO =        -0.00000000
  eigenvalues    EBANDS =      -509.50336139
  atomic energy  EATOM  =      2023.81668923
  Solvation  Ediel_sol  =         0.00000000
  ---------------------------------------------------
  free energy    TOTEN  =       -45.99273232 eV

  energy without entropy =      -45.99273232  energy(sigma->0) =      -45.99273232


--------------------------------------------------------------------------------------------------------




--------------------------------------- Iteration      1(  22)  ---------------------------------------


    POTLOK:  cpu time   14.6463: real time   14.6708
    SETDIJ:  cpu time    0.0485: real time    0.0485
     EDDAV:  cpu time   29.4323: real time   29.4933
       DOS:  cpu time    0.0003: real time    0.0003
    CHARGE:  cpu time    6.4955: real time    6.5040
    MIXING:  cpu time    0.7016: real time    0.7029
    --------------------------------------------
      LOOP:  cpu time   51.3245: real time   51.4198

 eigenvalue-minimisations  :   128
 total energy-change (2. order) :-0.1015542E-04  (-0.1065697E-07)
 number of electron      31.9999999 magnetization 
 augmentation part        2.6786286 magnetization 

 Broyden mixing:
  rms(total) = 0.99810E-05    rms(broyden)= 0.99810E-05
  rms(prec ) = 0.12345E-04
  weight for this iteration     100.00

 eigenvalues of (default mixing * dielectric matrix)
  average eigenvalue GAMMA=   2.3477
  9.3587  6.2648  4.2184  3.1733  2.5119  2.3469  2.1508  1.5604  0.9604  0.9604
  0.9531  0.9531  0.9926  0.9170  0.9170  0.8363  0.8363

 Free energy of the ion-electron system (eV)
  ---------------------------------------------------
  alpha Z        PSCENC =         0.09979497
  Ewald energy   TEWEN  =      1670.51377903
  -Hartree energ DENC   =     -3361.48835844
  -exchange      EXHF   =         0.00000000
  -V(xc)+E(xc)   XCENC  =       139.49012342
  PAW double counting   =      3112.73766058    -3121.65976011
  entropy T*S    EENTRO =        -0.00000000
  eigenvalues    EBANDS =      -509.50267117
  atomic energy  EATOM  =      2023.81668923
  Solvation  Ediel_sol  =         0.00000000
  ---------------------------------------------------
  free energy    TOTEN  =       -45.99274248 eV

  energy without entropy =      -45.99274248  energy(sigma->0) =      -45.99274248


--------------------------------------------------------------------------------------------------------




--------------------------------------- Iteration      1(  23)  ---------------------------------------


    POTLOK:  cpu time   14.6742: real time   14.7074
    SETDIJ:  cpu time    0.0486: real time    0.0486
     EDDAV:  cpu time   17.8078: real time   17.8456
       DOS:  cpu time    0.0019: real time    0.0019
    CHARGE:  cpu time    6.4749: real time    6.4834
    MIXING:  cpu time    0.7519: real time    0.7533
    --------------------------------------------
      LOOP:  cpu time   39.7593: real time   39.8403

 eigenvalue-minimisations  :    64
 total energy-change (2. order) :-0.4244278E-05  (-0.7574183E-08)
 number of electron      31.9999999 magnetization 
 augmentation part        2.6786267 magnetization 

 Broyden mixing:
  rms(total) = 0.82292E-05    rms(broyden)= 0.82292E-05
  rms(prec ) = 0.92570E-05
  weight for this iteration     100.00

 eigenvalues of (default mixing * dielectric matrix)
  average eigenvalue GAMMA=   2.3853
  9.5563  6.5740  4.6667  3.3613  2.7179  2.4671  2.1912  1.5896  1.5896  0.9323
  0.9323  1.0261  0.9410  0.9410  0.8977  0.8977  0.8267  0.8267

 Free energy of the ion-electron system (eV)
  ---------------------------------------------------
  alpha Z        PSCENC =         0.09979497
  Ewald energy   TEWEN  =      1670.51377903
  -Hartree energ DENC   =     -3361.48889294
  -exchange      EXHF   =         0.00000000
  -V(xc)+E(xc)   XCENC  =       139.49014673
  PAW double counting   =      3112.73910804    -3121.66121307
  entropy T*S    EENTRO =        -0.00000000
  eigenvalues    EBANDS =      -509.50215872
  atomic energy  EATOM  =      2023.81668923
  Solvation  Ediel_sol  =         0.00000000
  ---------------------------------------------------
  free energy    TOTEN  =       -45.99274672 eV

  energy without entropy =      -45.99274672  energy(sigma->0) =      -45.99274672


--------------------------------------------------------------------------------------------------------




--------------------------------------- Iteration      1(  24)  ---------------------------------------


    POTLOK:  cpu time   14.6673: real time   14.7026
    SETDIJ:  cpu time    0.0485: real time    0.0485
     EDDAV:  cpu time   29.3736: real time   29.4406
       DOS:  cpu time    0.0090: real time    0.0090
    CHARGE:  cpu time    6.4709: real time    6.4797
    MIXING:  cpu time    0.7833: real time    0.7848
    --------------------------------------------
      LOOP:  cpu time   51.3526: real time   51.4652

 eigenvalue-minimisations  :   128
 total energy-change (2. order) :-0.2204305E-05  (-0.6268767E-08)
 number of electron      31.9999999 magnetization 
 augmentation part        2.6786272 magnetization 

 Broyden mixing:
  rms(total) = 0.34625E-05    rms(broyden)= 0.34625E-05
  rms(prec ) = 0.41666E-05
  weight for this iteration     100.00

 eigenvalues of (default mixing * dielectric matrix)
  average eigenvalue GAMMA=   2.3622
  9.6499  6.7553  4.8526  3.4921  2.7938  2.4492  2.1623  1.8523  1.5513  0.9529
  0.9529  0.9858  0.9858  0.9911  0.9224  0.9224  0.9470  0.8313  0.8313

 Free energy of the ion-electron system (eV)
  ---------------------------------------------------
  alpha Z        PSCENC =         0.09979497
  Ewald energy   TEWEN  =      1670.51377903
  -Hartree energ DENC   =     -3361.48898835
  -exchange      EXHF   =         0.00000000
  -V(xc)+E(xc)   XCENC  =       139.49014427
  PAW double counting   =      3112.73298944    -3121.65510405
  entropy T*S    EENTRO =        -0.00000000
  eigenvalues    EBANDS =      -509.50205348
  atomic energy  EATOM  =      2023.81668923
  Solvation  Ediel_sol  =         0.00000000
  ---------------------------------------------------
  free energy    TOTEN  =       -45.99274893 eV

  energy without entropy =      -45.99274893  energy(sigma->0) =      -45.99274893


--------------------------------------------------------------------------------------------------------




--------------------------------------- Iteration      1(  25)  ---------------------------------------


    POTLOK:  cpu time   14.6503: real time   14.6756
    SETDIJ:  cpu time    0.0485: real time    0.0485
     EDDAV:  cpu time   17.7871: real time   17.8180
       DOS:  cpu time    0.0078: real time    0.0078
    CHARGE:  cpu time    6.4102: real time    6.4205
    MIXING:  cpu time    0.8379: real time    0.8394
    --------------------------------------------
      LOOP:  cpu time   39.7418: real time   39.8098

 eigenvalue-minimisations  :    64
 total energy-change (2. order) :-0.7405761E-06  (-0.5563045E-08)
 number of electron      31.9999999 magnetization 
 augmentation part        2.6786278 magnetization 

 Broyden mixing:
  rms(total) = 0.18649E-05    rms(broyden)= 0.18649E-05
  rms(prec ) = 0.24426E-05
  weight for this iteration     100.00

 eigenvalues of (default mixing * dielectric matrix)
  average eigenvalue GAMMA=   2.4095
  9.7302  6.9931  5.1885  3.7930  3.0238  2.4537  2.4537  2.1886  1.5922  1.5427
  0.9414  0.9414  1.0454  0.9487  0.9487  0.9177  0.9177  0.8864  0.8416  0.8416

 Free energy of the ion-electron system (eV)
  ---------------------------------------------------
  alpha Z        PSCENC =         0.09979497
  Ewald energy   TEWEN  =      1670.51377903
  -Hartree energ DENC   =     -3361.48878406
  -exchange      EXHF   =         0.00000000
  -V(xc)+E(xc)   XCENC  =       139.49013384
  PAW double counting   =      3112.73315684    -3121.65527059
  entropy T*S    EENTRO =        -0.00000000
  eigenvalues    EBANDS =      -509.50224894
  atomic energy  EATOM  =      2023.81668923
  Solvation  Ediel_sol  =         0.00000000
  ---------------------------------------------------
  free energy    TOTEN  =       -45.99274967 eV

  energy without entropy =      -45.99274967  energy(sigma->0) =      -45.99274967


--------------------------------------------------------------------------------------------------------




--------------------------------------- Iteration      1(  26)  ---------------------------------------


    POTLOK:  cpu time   14.7055: real time   14.7302
    SETDIJ:  cpu time    0.0486: real time    0.0486
     EDDAV:  cpu time   29.2557: real time   29.3064
       DOS:  cpu time    0.0118: real time    0.0118
    CHARGE:  cpu time    6.4145: real time    6.4232
    MIXING:  cpu time    0.8877: real time    0.8893
    --------------------------------------------
      LOOP:  cpu time   51.3238: real time   51.4096

 eigenvalue-minimisations  :   128
 total energy-change (2. order) :-0.7571803E-06  (-0.4892215E-08)
 number of electron      31.9999999 magnetization 
 augmentation part        2.6786281 magnetization 

 Broyden mixing:
  rms(total) = 0.14573E-05    rms(broyden)= 0.14573E-05
  rms(prec ) = 0.16502E-05
  weight for this iteration     100.00

 eigenvalues of (default mixing * dielectric matrix)
  average eigenvalue GAMMA=   2.4239
  9.7475  7.2994  5.4740  4.1407  3.2401  2.6808  2.4722  2.1469  1.7215  1.5383
  1.0762  1.0762  0.9522  0.9522  1.0552  0.9349  0.9349  0.8947  0.8947  0.8347
  0.8347

 Free energy of the ion-electron system (eV)
  ---------------------------------------------------
  alpha Z        PSCENC =         0.09979497
  Ewald energy   TEWEN  =      1670.51377903
  -Hartree energ DENC   =     -3361.48868444
  -exchange      EXHF   =         0.00000000
  -V(xc)+E(xc)   XCENC  =       139.49012895
  PAW double counting   =      3112.73239515    -3121.65451014
  entropy T*S    EENTRO =        -0.00000000
  eigenvalues    EBANDS =      -509.50234318
  atomic energy  EATOM  =      2023.81668923
  Solvation  Ediel_sol  =         0.00000000
  ---------------------------------------------------
  free energy    TOTEN  =       -45.99275042 eV

  energy without entropy =      -45.99275042  energy(sigma->0) =      -45.99275042


--------------------------------------------------------------------------------------------------------




--------------------------------------- Iteration      1(  27)  ---------------------------------------


    POTLOK:  cpu time   14.7339: real time   14.7667
    SETDIJ:  cpu time    0.0484: real time    0.0485
     EDDAV:  cpu time   29.2202: real time   29.2706
       DOS:  cpu time    0.0073: real time    0.0073
    CHARGE:  cpu time    6.4141: real time    6.4282
    MIXING:  cpu time    0.9385: real time    0.9403
    --------------------------------------------
      LOOP:  cpu time   51.3625: real time   51.4616

 eigenvalue-minimisations  :   128
 total energy-change (2. order) :-0.2083207E-06  (-0.4355112E-08)
 number of electron      31.9999999 magnetization 
 augmentation part        2.6786279 magnetization 

 Broyden mixing:
  rms(total) = 0.91300E-06    rms(broyden)= 0.91300E-06
  rms(prec ) = 0.10233E-05
  weight for this iteration     100.00

 eigenvalues of (default mixing * dielectric matrix)
  average eigenvalue GAMMA=   2.4653
  9.7840  7.5252  5.7553  4.4182  3.3140  2.8577  2.4758  2.4758  2.1274  1.6522
  1.5378  0.9466  0.9466  1.0733  0.9892  0.9892  0.9433  0.9433  0.8345  0.8345
  0.9063  0.9063

 Free energy of the ion-electron system (eV)
  ---------------------------------------------------
  alpha Z        PSCENC =         0.09979497
  Ewald energy   TEWEN  =      1670.51377903
  -Hartree energ DENC   =     -3361.48869040
  -exchange      EXHF   =         0.00000000
  -V(xc)+E(xc)   XCENC  =       139.49013037
  PAW double counting   =      3112.73282020    -3121.65493510
  entropy T*S    EENTRO =        -0.00000000
  eigenvalues    EBANDS =      -509.50233893
  atomic energy  EATOM  =      2023.81668923
  Solvation  Ediel_sol  =         0.00000000
  ---------------------------------------------------
  free energy    TOTEN  =       -45.99275063 eV

  energy without entropy =      -45.99275063  energy(sigma->0) =      -45.99275063


--------------------------------------------------------------------------------------------------------




--------------------------------------- Iteration      1(  28)  ---------------------------------------


    POTLOK:  cpu time   14.7050: real time   14.7294
    SETDIJ:  cpu time    0.0485: real time    0.0486
     EDDAV:  cpu time   23.5179: real time   23.5576
       DOS:  cpu time    0.0004: real time    0.0003
    CHARGE:  cpu time    6.4139: real time    6.4232
    MIXING:  cpu time    0.9809: real time    0.9826
    --------------------------------------------
      LOOP:  cpu time   45.6666: real time   45.7418

 eigenvalue-minimisations  :    96
 total energy-change (2. order) :-0.1424569E-06  (-0.3838483E-08)
 number of electron      31.9999999 magnetization 
 augmentation part        2.6786277 magnetization 

 Broyden mixing:
  rms(total) = 0.54556E-06    rms(broyden)= 0.54555E-06
  rms(prec ) = 0.58907E-06
  weight for this iteration     100.00

 eigenvalues of (default mixing * dielectric matrix)
  average eigenvalue GAMMA=   2.4872
  9.8240  7.7566  6.0695  4.7100  3.6234  3.0181  2.5562  2.4719  2.1966  1.7319
  1.5271  1.4018  0.9450  0.9450  1.0556  0.9447  0.9447  1.0225  0.9696  0.9112
  0.9112  0.8347  0.8347

 Free energy of the ion-electron system (eV)
  ---------------------------------------------------
  alpha Z        PSCENC =         0.09979497
  Ewald energy   TEWEN  =      1670.51377903
  -Hartree energ DENC   =     -3361.48868507
  -exchange      EXHF   =         0.00000000
  -V(xc)+E(xc)   XCENC  =       139.49013126
  PAW double counting   =      3112.73343875    -3121.65555173
  entropy T*S    EENTRO =        -0.00000000
  eigenvalues    EBANDS =      -509.50234721
  atomic energy  EATOM  =      2023.81668923
  Solvation  Ediel_sol  =         0.00000000
  ---------------------------------------------------
  free energy    TOTEN  =       -45.99275078 eV

  energy without entropy =      -45.99275078  energy(sigma->0) =      -45.99275078


--------------------------------------------------------------------------------------------------------




--------------------------------------- Iteration      1(  29)  ---------------------------------------


    POTLOK:  cpu time   14.7439: real time   14.7682
    SETDIJ:  cpu time    0.0486: real time    0.0486
     EDDAV:  cpu time   29.1829: real time   29.2328
       DOS:  cpu time    0.0082: real time    0.0082
    --------------------------------------------
      LOOP:  cpu time   43.9835: real time   44.0578

 eigenvalue-minimisations  :   128
 total energy-change (2. order) :-0.3909145E-07  (-0.3520004E-08)
 number of electron      31.9999999 magnetization 
 augmentation part        2.6786277 magnetization 

 Free energy of the ion-electron system (eV)
  ---------------------------------------------------
  alpha Z        PSCENC =         0.09979497
  Ewald energy   TEWEN  =      1670.51377903
  -Hartree energ DENC   =     -3361.48866603
  -exchange      EXHF   =         0.00000000
  -V(xc)+E(xc)   XCENC  =       139.49013064
  PAW double counting   =      3112.73343299    -3121.65554634
  entropy T*S    EENTRO =        -0.00000000
  eigenvalues    EBANDS =      -509.50236531
  atomic energy  EATOM  =      2023.81668923
  Solvation  Ediel_sol  =         0.00000000
  ---------------------------------------------------
  free energy    TOTEN  =       -45.99275081 eV

  energy without entropy =      -45.99275081  energy(sigma->0) =      -45.99275081


--------------------------------------------------------------------------------------------------------




 average (electrostatic) potential at core
  the test charge radii are     0.6991  0.7215
  (the norm of the test charge is              1.0000)
       1 -63.7305       2 -63.6303       3 -82.7511       4 -82.7416       5 -82.6462
       6 -82.6462
 
 
 
 E-fermi :  -8.9698     XC(G=0):  -0.0404     alpha+bet : -0.0117


 k-point     1 :       0.0000    0.0000    0.0000
  band No.  band energies     occupation 
      1     -29.2796      2.00000
      2     -29.1797      2.00000
      3     -28.2724      2.00000
      4     -28.1726      2.00000
      5     -13.8129      2.00000
      6     -13.7112      2.00000
      7     -12.7457      2.00000
      8     -12.7449      2.00000
      9     -12.6634      2.00000
     10     -12.6475      2.00000
     11     -12.6397      2.00000
     12     -12.5578      2.00000
     13      -9.1313      2.00000
     14      -9.1304      2.00000
     15      -9.0326      2.00000
     16      -9.0297      2.00000
     17      -1.1584      0.00000
     18      -0.8112      0.00000
     19      -0.5617      0.00000
     20      -0.5601      0.00000
     21      -0.4618      0.00000
     22      -0.4581      0.00000
     23       0.0090      0.00000
     24       0.1103      0.00000
     25       0.1142      0.00000
     26       0.1238      0.00000
     27       0.1252      0.00000
     28       0.1318      0.00000
     29       0.1511      0.00000
     30       0.2069      0.00000
     31       0.2136      0.00000
     32       0.2440      0.00000


--------------------------------------------------------------------------------------------------------


 soft charge-density along one line, spin component            1
         0         1         2         3         4         5         6         7         8         9
 total charge-density along one line
 
 pseudopotential strength for first ion, spin component:            1
 10.558  14.048   0.000   0.000   0.000  -0.000  -0.000  -0.000
 14.048  18.691   0.000   0.000   0.000  -0.000  -0.000  -0.000
  0.000   0.000  -4.692   0.000   0.000   9.160  -0.000  -0.000
  0.000   0.000   0.000  -4.618  -0.000  -0.000   9.036   0.000
  0.000   0.000   0.000  -0.000  -4.618  -0.000   0.000   9.036
 -0.000  -0.000   9.160  -0.000  -0.000 -20.038   0.000   0.000
 -0.000  -0.000  -0.000   9.036   0.000   0.000 -19.833  -0.000
 -0.000  -0.000  -0.000   0.000   9.036   0.000  -0.000 -19.833
 total augmentation occupancy for first ion, spin component:            1
 11.136  -5.616   0.001  -0.000  -0.000   0.000  -0.000  -0.000
 -5.616   3.040  -0.001   0.000  -0.000  -0.000   0.000   0.000
  0.001  -0.001   2.593  -0.000  -0.000   0.330  -0.000  -0.000
 -0.000   0.000  -0.000   1.238  -0.000   0.000   0.083   0.000
 -0.000  -0.000  -0.000  -0.000   1.238   0.000   0.000   0.083
  0.000  -0.000   0.330   0.000   0.000   0.051  -0.000  -0.000
 -0.000   0.000  -0.000   0.083   0.000  -0.000   0.006   0.000
 -0.000   0.000  -0.000   0.000   0.083  -0.000   0.000   0.006


------------------------ aborting loop because EDIFF is reached ----------------------------------------



 DIPCOR: dipole corrections for dipol
 direction  1 min pos   356, direction  2 min pos   374, direction  3 min pos   415,
 dipolmoment           0.000004      0.009566     -0.000030 electrons x Angstroem
 Tr[quadrupol]        15.798152

 energy correction for charged system         0.000000 eV
 dipol+quadrupol energy correction            0.000000 eV
 added-field ion interaction          0.000000 eV  (added to PSCEN)

 
  *************** adding dipol energy to TOTEN NOW **************** 
    CHARGE:  cpu time    6.3732: real time    6.3815
    FORLOC:  cpu time    0.4906: real time    0.4913
    FORNL :  cpu time    0.6840: real time    0.6851
    STRESS:  cpu time   16.0673: real time   16.0945
    FORCOR:  cpu time   12.7139: real time   12.7355
    FORHAR:  cpu time    3.5567: real time    3.5632
    MIXING:  cpu time    1.0281: real time    1.0300
    OFIELD:  cpu time    0.0000: real time    0.0000

  Hirshfeld charges:
            ion         q(e)     
   ------------------------------
      1     C           0.294
      2     C           0.293
      3     O          -0.147
      4     O          -0.145
      5     O          -0.147
      6     O          -0.147

  Hirshfeld-I charges:
            ion         q(e)        dq(e)    
   ------------------------------------------
      1     C           0.843     -0.464E-04
      2     C           0.842     -0.447E-04
      3     O          -0.424      0.233E-04
      4     O          -0.419      0.232E-04
      5     O          -0.421      0.223E-04
      6     O          -0.421      0.223E-04

   Hirshfeld-I converged in  15 cycles. Convergence criterion |dq|< 0.500E-04 e

  Atomic reference data used in the T-S method for vdW correction:
            C6at              R0at           ALPHAat      REFSTATE
            (au)              (au)            (au)                
   ---------------------------------------------------------------
   C          46.600          3.590         12.000         0
   O          15.600          3.194          5.400         0

  Tkatchenko/Scheffler method for vdW energy calculation
  ---------------------------------------------------------------------------------------------

  Parameters of vdW forcefield:
            C6ts              R0ts           ALPHAts        RELVOL
            (au)              (au)            (au)                
   ---------------------------------------------------------------
   C           9.072          2.733          5.295          0.44121155
   C           9.084          2.734          5.298          0.44150522
   O          18.740          3.293          5.918          1.09601711
   O          18.444          3.284          5.872          1.08733014
   O          18.529          3.287          5.885          1.08984117
   O          18.529          3.287          5.885          1.08984484

  vdW correction parametrized for the method pbe       

  IVDW =  21
  VDW_RADIUS =    50.000 A
  VDW_IDAMPF =  0
  VDW_S6 =     1.000
  VDW_SR =     0.950
  VDW_D =    20.000
  LVDW_ONECELL = F F F
  LVDW_SAMETYPE T T
  LVDW_EWALD = F

  Number of pair interactions contributing to vdW energy:     320
  Edisp (eV):   -0.00356
    FORVDW:  cpu time   99.4750: real time   99.5360

  FORCE on cell =-STRESS in cart. coord.  units (eV):
  Direction    XX          YY          ZZ          XY          YZ          ZX
  --------------------------------------------------------------------------------------
  Alpha Z     0.09979     0.09979     0.09979
  Ewald    -202.30774  1241.57622   631.24607    -0.08433    -5.11139   -10.82667
  Hartree   650.74887  1648.24909  1062.49069    -0.11951    -1.95355    -5.33371
  E(xc)    -150.34013  -148.23270  -148.23304     0.00021    -0.01595    -0.02743
  Local    -915.64256 -3283.87225 -2087.78391     0.21108     6.51083    15.20798
  n-local   -97.15643  -103.26375  -103.26455    -0.00060     0.04615     0.07952
  augment    26.56605    23.80300    23.80419    -0.00022     0.02091     0.03593
  Kinetic   688.01055   623.04694   623.08866    -0.00642     0.49191     0.84523
  Fock        0.00000     0.00000     0.00000     0.00000     0.00000     0.00000
  vdW        -0.00000    -0.01634     0.00094     0.00001    -0.00007    -0.00001
  -------------------------------------------------------------------------------------
  Total      -0.02160     1.38999     1.44883     0.00021    -0.01116    -0.01918
  in kB      -0.00081     0.05194     0.05414     0.00001    -0.00042    -0.00072
  external pressure =        0.04 kB  Pullay stress =        0.00 kB


 VOLUME and BASIS-vectors are now :
 -----------------------------------------------------------------------------
  energy-cutoff  :     1000.00
  volume of cell :    42875.00
      direct lattice vectors                 reciprocal lattice vectors
    35.000000000  0.000000000  0.000000000     0.028571429  0.000000000  0.000000000
     0.000000000 35.000000000  0.000000000     0.000000000  0.028571429  0.000000000
     0.000000000  0.000000000 35.000000000     0.000000000  0.000000000  0.028571429

  length of vectors
    35.000000000 35.000000000 35.000000000     0.028571429  0.028571429  0.028571429


 FORCES acting on ions
    electron-ion (+dipol)            ewald-force                    non-local-force                 convergence-correction
 -----------------------------------------------------------------------------------------------
   -.658E-02 0.250E+02 0.459E-01   0.658E-02 -.250E+02 -.459E-01   0.155E-05 0.165E-01 0.344E-04   -.292E-07 -.638E-06 -.175E-07
   0.805E-02 -.287E+02 -.403E-01   -.804E-02 0.287E+02 0.406E-01   0.349E-05 0.283E-02 -.156E-03   -.606E-08 -.113E-06 -.112E-05
   -.190E-01 -.224E+03 0.139E+00   0.190E-01 0.289E+03 -.138E+00   -.229E-04 -.642E+02 -.101E-02   -.567E-09 0.433E-05 -.172E-07
   -.572E-02 0.308E+03 0.387E-01   0.572E-02 -.373E+03 -.386E-01   0.102E-05 0.644E+02 -.140E-03   0.743E-08 -.276E-05 -.531E-08
   0.379E+01 -.381E+02 -.291E+03   -.464E+01 0.375E+02 0.356E+03   0.837E+00 0.553E+00 -.643E+02   -.174E-07 -.474E-06 0.283E-05
   -.377E+01 -.422E+02 0.291E+03   0.462E+01 0.426E+02 -.355E+03   -.837E+00 -.421E+00 0.643E+02   0.240E-07 -.766E-06 -.194E-05
 -----------------------------------------------------------------------------------------------
   0.960E-04 -.306E+00 0.597E-03   -.888E-15 -.284E-13 0.000E+00   -.857E-04 0.305E+00 -.990E-03   -.218E-07 -.421E-06 -.270E-06
 
 
 POSITION                                       TOTAL-FORCE (eV/Angst)
 -----------------------------------------------------------------------------------
      0.00000      0.05699      0.00000        -0.000003     -0.030252      0.000117
     34.99851      5.92718      0.00754         0.000008     -0.020577      0.000144
      0.00000      1.22721      0.00000        -0.000004      0.649809      0.000003
      0.00000     33.88677      0.00000        -0.000001     -0.609318      0.000066
     34.98327      5.91833      1.17763        -0.008268      0.000369      0.628454
      0.01374      5.93603     33.83746         0.008268      0.009970     -0.628785
 -----------------------------------------------------------------------------------
    total drift:                                0.000010     -0.000405     -0.000394


--------------------------------------------------------------------------------------------------------



  FREE ENERGIE OF THE ION-ELECTRON SYSTEM (eV)
  ---------------------------------------------------
  free  energy   TOTEN  =       -45.99631211 eV

  energy  without entropy=      -45.99631211  energy(sigma->0) =      -45.99631211
 


--------------------------------------------------------------------------------------------------------


    POTLOK:  cpu time   15.5463: real time   15.5709


--------------------------------------------------------------------------------------------------------


 writing wavefunctions
     LOOP+:  cpu time 1780.1853: real time 1784.7664
    4ORBIT:  cpu time    0.0000: real time    0.0000

 total amount of memory used by VASP MPI-rank0  4007897. kBytes
=======================================================================

   base      :      30000. kBytes
   nonl-proj :     344787. kBytes
   fftplans  :     676185. kBytes
   grid      :    2932288. kBytes
   one-center:          9. kBytes
   wavefun   :      24628. kBytes
 
  
  
 General timing and accounting informations for this job:
 ========================================================
  
                  Total CPU time used (sec):     3200.581
                            User time (sec):     2990.492
                          System time (sec):      210.089
                         Elapsed time (sec):     3222.126
  
                   Maximum memory used (kb):     5429136.
                   Average memory used (kb):           0.
  
                          Minor page faults:     80207254
                          Major page faults:          915
                 Voluntary context switches:        10399
