 vasp.6.1.2 22Jul20 (build Jan  6 2021 09:55:43) gamma-only                      
 executed on             LinuxPGI date 2023.10.20  00:47:59
 running on   32 total cores
 distrk:  each k-point on   32 cores,    1 groups
 distr:  one band on NCORE=   1 cores,   32 groups


--------------------------------------------------------------------------------------------------------


 INCAR:
 POTCAR:    PAW_PBE C 08Apr2002                   
 POTCAR:    PAW_PBE O 08Apr2002                   
 -----------------------------------------------------------------------------
|                                                                             |
|           W    W    AA    RRRRR   N    N  II  N    N   GGGG   !!!           |
|           W    W   A  A   R    R  NN   N  II  NN   N  G    G  !!!           |
|           W    W  A    A  R    R  N N  N  II  N N  N  G       !!!           |
|           W WW W  AAAAAA  RRRRR   N  N N  II  N  N N  G  GGG   !            |
|           WW  WW  A    A  R   R   N   NN  II  N   NN  G    G                |
|           W    W  A    A  R    R  N    N  II  N    N   GGGG   !!!           |
|                                                                             |
|     For optimal performance we recommend to set                             |
|       NCORE = 4 - approx SQRT(number of cores).                             |
|     NCORE specifies how many cores store one orbital (NPAR=cpu/NCORE).      |
|     This setting can greatly improve the performance of VASP for DFT.       |
|     The default, NCORE=1 might be grossly inefficient on modern             |
|     multi-core architectures or massively parallel machines. Do your        |
|     own testing!!!!                                                         |
|     Unfortunately you need to use the default for GW and RPA                |
|     calculations (for HF NCORE is supported but not extensively tested      |
|     yet).                                                                   |
|                                                                             |
 -----------------------------------------------------------------------------

 POTCAR:    PAW_PBE C 08Apr2002                   
   VRHFIN =C: s2p2                                                                                  
   LEXCH  = PE                                                                                      
   EATOM  =   147.1560 eV,   10.8157 Ry                                                             
                                                                                                    
   TITEL  = PAW_PBE C 08Apr2002                                                                     
   LULTRA =        F    use ultrasoft PP ?                                                          
   IUNSCR =        1    unscreen: 0-lin 1-nonlin 2-no                                               
   RPACOR =    1.200    partial core radius                                                         
   POMASS =   12.011; ZVAL   =    4.000    mass and valenz                                          
   RCORE  =    1.500    outmost cutoff radius                                                       
   RWIGS  =    1.630; RWIGS  =    0.863    wigner-seitz radius (au A)                               
   ENMAX  =  400.000; ENMIN  =  300.000 eV                                                          
   ICORE  =        2    local potential                                                             
   LCOR   =        T    correct aug charges                                                         
   LPAW   =        T    paw PP                                                                      
   EAUG   =  644.873                                                                                
   DEXC   =    0.000                                                                                
   RMAX   =    1.529    core radius for proj-oper                                                   
   RAUG   =    1.300    factor for augmentation sphere                                              
   RDEP   =    1.501    radius for radial grids                                                     
   RDEPT  =    1.300    core radius for aug-charge                                                  
                                                                                                    
   Atomic configuration                                                                             
    4 entries                                                                                       
     n  l   j            E        occ.                                                              
     1  0  0.50      -273.3789   2.0000                                                             
     2  0  0.50       -13.7508   2.0000                                                             
     2  1  0.50        -5.2854   2.0000                                                             
     3  2  1.50        -5.4423   0.0000                                                             
   Description                                                                                      
     l       E           TYP  RCUT    TYP  RCUT                                                     
     0    -13.7508458     23  1.200                                                                 
     0     -8.2022199     23  1.200                                                                 
     1     -5.2854383     23  1.500                                                                 
     1     34.0145650     23  1.500                                                                 
     2     -5.4423304      7  1.500                                                                 
  local pseudopotential read in
  partial core-charges read in
  partial kinetic energy density read in
  atomic valenz-charges read in
  non local Contribution for L=            0  read in
    real space projection operators read in
  non local Contribution for L=            0  read in
    real space projection operators read in
  non local Contribution for L=            1  read in
    real space projection operators read in
  non local Contribution for L=            1  read in
    real space projection operators read in
    PAW grid and wavefunctions read in
 
   number of l-projection  operators is LMAX  =            4
   number of lm-projection operators is LMMAX =            8
 
 POTCAR:    PAW_PBE O 08Apr2002                   
   VRHFIN =O: s2p4                                                                                  
   LEXCH  = PE                                                                                      
   EATOM  =   432.3788 eV,   31.7789 Ry                                                             
                                                                                                    
   TITEL  = PAW_PBE O 08Apr2002                                                                     
   LULTRA =        F    use ultrasoft PP ?                                                          
   IUNSCR =        1    unscreen: 0-lin 1-nonlin 2-no                                               
   RPACOR =    1.200    partial core radius                                                         
   POMASS =   16.000; ZVAL   =    6.000    mass and valenz                                          
   RCORE  =    1.520    outmost cutoff radius                                                       
   RWIGS  =    1.550; RWIGS  =    0.820    wigner-seitz radius (au A)                               
   ENMAX  =  400.000; ENMIN  =  300.000 eV                                                          
   ICORE  =        2    local potential                                                             
   LCOR   =        T    correct aug charges                                                         
   LPAW   =        T    paw PP                                                                      
   EAUG   =  605.392                                                                                
   DEXC   =    0.000                                                                                
   RMAX   =    1.553    core radius for proj-oper                                                   
   RAUG   =    1.300    factor for augmentation sphere                                              
   RDEP   =    1.550    radius for radial grids                                                     
   RDEPT  =    1.329    core radius for aug-charge                                                  
                                                                                                    
   Atomic configuration                                                                             
    4 entries                                                                                       
     n  l   j            E        occ.                                                              
     1  0  0.50      -514.6923   2.0000                                                             
     2  0  0.50       -23.9615   2.0000                                                             
     2  1  0.50        -9.0305   4.0000                                                             
     3  2  1.50        -9.5241   0.0000                                                             
   Description                                                                                      
     l       E           TYP  RCUT    TYP  RCUT                                                     
     0    -23.9615318     23  1.200                                                                 
     0     -9.5240782     23  1.200                                                                 
     1     -9.0304911     23  1.520                                                                 
     1      8.1634956     23  1.520                                                                 
     2     -9.5240782      7  1.500                                                                 
  local pseudopotential read in
  partial core-charges read in
  partial kinetic energy density read in
  kinetic energy density of atom read in
  atomic valenz-charges read in
  non local Contribution for L=            0  read in
    real space projection operators read in
  non local Contribution for L=            0  read in
    real space projection operators read in
  non local Contribution for L=            1  read in
    real space projection operators read in
  non local Contribution for L=            1  read in
    real space projection operators read in
    PAW grid and wavefunctions read in
 
   number of l-projection  operators is LMAX  =            4
   number of lm-projection operators is LMMAX =            8
 
  PAW_PBE C 08Apr2002                   :
 energy of atom  1       EATOM= -147.1560
 kinetic energy error for atom=    0.0010 (will be added to EATOM!!)
  PAW_PBE O 08Apr2002                   :
 energy of atom  2       EATOM= -432.3788
 kinetic energy error for atom=    0.0022 (will be added to EATOM!!)
 
 
 POSCAR:  C  O
  positions in cartesian coordinates
  No initial velocities read in
 exchange correlation table for  LEXCH =        8
   RHO(1)=    0.500       N(1)  =     2000
   RHO(2)=  100.500       N(2)  =     4000
 


--------------------------------------------------------------------------------------------------------


 ion  position               nearest neighbor table
   1  0.000  0.002  0.000-   3 1.17   4 1.17
   2  1.000  0.129  0.000-   5 1.17   6 1.17
   3  0.000  0.035  0.000-   1 1.17
   4  0.000  0.968  0.000-   1 1.17
   5  1.000  0.129  0.034-   2 1.17
   6  0.000  0.130  0.967-   2 1.17
 
  LATTYP: Found a simple cubic cell.
 ALAT       =    35.0000000000
  
  Lattice vectors:
  
 A1 = (  35.0000000000,   0.0000000000,   0.0000000000)
 A2 = (   0.0000000000,  35.0000000000,   0.0000000000)
 A3 = (   0.0000000000,   0.0000000000,  35.0000000000)


Analysis of symmetry for initial positions (statically):
=====================================================================
 Subroutine PRICEL returns:
 Original cell was already a primitive cell.
 

 Routine SETGRP: Setting up the symmetry group for a 
 simple cubic supercell.


 Subroutine GETGRP returns: Found  1 space group operations
 (whereof  1 operations were pure point group operations)
 out of a pool of 48 trial point group operations.


The static configuration has the point symmetry C_1 .


Analysis of symmetry for dynamics (positions and initial velocities):
=====================================================================
 Subroutine PRICEL returns:
 Original cell was already a primitive cell.
 

 Routine SETGRP: Setting up the symmetry group for a 
 simple cubic supercell.


 Subroutine GETGRP returns: Found  1 space group operations
 (whereof  1 operations were pure point group operations)
 out of a pool of 48 trial point group operations.


The dynamic configuration has the point symmetry C_1 .


 Subroutine INISYM returns: Found  1 space group operations
 (whereof  1 operations are pure point group operations),
 and found     1 'primitive' translations


----------------------------------------------------------------------------------------

                                     Primitive cell                                     

  volume of cell :   42875.0000

  direct lattice vectors                    reciprocal lattice vectors
    35.000000000  0.000000000  0.000000000     0.028571429  0.000000000  0.000000000
     0.000000000 35.000000000  0.000000000     0.000000000  0.028571429  0.000000000
     0.000000000  0.000000000 35.000000000     0.000000000  0.000000000  0.028571429

  length of vectors
    35.000000000 35.000000000 35.000000000     0.028571429  0.028571429  0.028571429

  position of ions in fractional coordinates (direct lattice)
     0.000000000  0.001628171  0.000000000
     0.999957287  0.129347898  0.000215536
     0.000000000  0.035063029  0.000000000
     0.000000000  0.968193314  0.000000000
     0.999522117  0.129095043  0.033646605
     0.000392457  0.129600752  0.966784468

  ion indices of the primitive-cell ions
   primitive index   ion index
                 1           1
                 2           2
                 3           3
                 4           4
                 5           5
                 6           6

----------------------------------------------------------------------------------------

 
 
 KPOINTS: g                                       

Automatic generation of k-mesh.
Space group operators:
 irot       det(A)        alpha          n_x          n_y          n_z        tau_x        tau_y        tau_z
    1     1.000000     0.000000     1.000000     0.000000     0.000000     0.000000     0.000000     0.000000
 
 Subroutine IBZKPT returns following result:
 ===========================================
 
 Found      1 irreducible k-points:
 
 Following reciprocal coordinates:
            Coordinates               Weight
  0.000000  0.000000  0.000000      1.000000
 
 Following cartesian coordinates:
            Coordinates               Weight
  0.000000  0.000000  0.000000      1.000000
 


--------------------------------------------------------------------------------------------------------




 Dimension of arrays:
   k-points           NKPTS =      1   k-points in BZ     NKDIM =      1   number of bands    NBANDS=     32
   number of dos      NEDOS =    301   number of ions     NIONS =      6
   non local maximal  LDIM  =      4   non local SUM 2l+1 LMDIM =      8
   total plane-waves  NPLWV = ******
   max r-space proj   IRMAX =      1   max aug-charges    IRDMAX=  16541
   dimension x,y,z NGX =   378 NGY =  378 NGZ =  378
   dimension x,y,z NGXF=   756 NGYF=  756 NGZF=  756
   support grid    NGXF=   756 NGYF=  756 NGZF=  756
   ions per type =               2   4
   NGX,Y,Z   is equivalent  to a cutoff of  17.95, 17.95, 17.95 a.u.
   NGXF,Y,Z  is equivalent  to a cutoff of  35.91, 35.91, 35.91 a.u.

 SYSTEM =  C                                       
 POSCAR =   C  O                                   

 Startparameter for this run:
   NWRITE =      2    write-flag & timer
   PREC   = acc       normal or accurate (medium, high low for compatibility)
   ISTART =      0    job   : 0-new  1-cont  2-samecut
   ICHARG =      2    charge: 1-file 2-atom 10-const
   ISPIN  =      1    spin polarized calculation?
   LNONCOLLINEAR =      F non collinear calculations
   LSORBIT =      F    spin-orbit coupling
   INIWAV =      1    electr: 0-lowe 1-rand  2-diag
   LASPH  =      T    aspherical Exc in radial PAW
   METAGGA=      F    non-selfconsistent MetaGGA calc.

 Electronic Relaxation 1
   ENCUT  = 1000.0 eV  73.50 Ry    8.57 a.u.  90.25 90.25 90.25*2*pi/ulx,y,z
   ENINI  = 1000.0     initial cutoff
   ENAUG  =  644.9 eV  augmentation charge cutoff
   NELM   =     60;   NELMIN=  2; NELMDL= -5     # of ELM steps 
   EDIFF  = 0.1E-06   stopping-criterion for ELM
   LREAL  =      F    real-space projection
   NLSPLINE    = F    spline interpolate recip. space projectors
   LCOMPAT=      F    compatible to vasp.4.4
   GGA_COMPAT  = T    GGA compatible to vasp.4.4-vasp.4.6
   LMAXPAW     = -100 max onsite density
   LMAXMIX     =    2 max onsite mixed and CHGCAR
   VOSKOWN=      0    Vosko Wilk Nusair interpolation
   ROPT   =    0.00000   0.00000
 Ionic relaxation
   EDIFFG = 0.1E-05   stopping-criterion for IOM
   NSW    =      0    number of steps for IOM
   NBLOCK =      1;   KBLOCK =      1    inner block; outer block 
   IBRION =     -1    ionic relax: 0-MD 1-quasi-New 2-CG
   NFREE  =      0    steps in history (QN), initial steepest desc. (CG)
   ISIF   =      2    stress and relaxation
   IWAVPR =     10    prediction:  0-non 1-charg 2-wave 3-comb
   ISYM   =      2    0-nonsym 1-usesym 2-fastsym
   LCORR  =      T    Harris-Foulkes like correction to forces

   POTIM  = 0.5000    time-step for ionic-motion
   TEIN   =    0.0    initial temperature
   TEBEG  =    0.0;   TEEND  =   0.0 temperature during run
   SMASS  =  -3.00    Nose mass-parameter (am)
   estimated Nose-frequenzy (Omega)   =  0.10E-29 period in steps = 0.13E+47 mass=  -0.280E-25a.u.
   SCALEE = 1.0000    scale energy and forces
   NPACO  =    256;   APACO  = 16.0  distance and # of slots for P.C.
   PSTRESS=    0.0 pullay stress

  Mass of Ions in am
   POMASS =  12.01 16.00
  Ionic Valenz
   ZVAL   =   4.00  6.00
  Atomic Wigner-Seitz radii
   RWIGS  =  -1.00 -1.00
  virtual crystal weights 
   VCA    =   1.00  1.00
   NELECT =      32.0000    total number of electrons
   NUPDOWN=      -1.0000    fix difference up-down

 DOS related values:
   EMIN   =  10.00;   EMAX   =-10.00  energy-range for DOS
   EFERMI =   0.00
   ISMEAR =     0;   SIGMA  =   0.01  broadening in eV -4-tet -1-fermi 0-gaus

 Electronic relaxation 2 (details)
   IALGO  =     38    algorithm
   LDIAG  =      T    sub-space diagonalisation (order eigenvalues)
   LSUBROT=      F    optimize rotation matrix (better conditioning)
   TURBO    =      0    0=normal 1=particle mesh
   IRESTART =      0    0=no restart 2=restart with 2 vectors
   NREBOOT  =      0    no. of reboots
   NMIN     =      0    reboot dimension
   EREF     =   0.00    reference energy to select bands
   IMIX   =      4    mixing-type and parameters
     AMIX     =   0.40;   BMIX     =  1.00
     AMIX_MAG =   1.60;   BMIX_MAG =  1.00
     AMIN     =   0.10
     WC   =   100.;   INIMIX=   1;  MIXPRE=   1;  MAXMIX= -45

 Intra band minimization:
   WEIMIN = 0.0000     energy-eigenvalue tresh-hold
   EBREAK =  0.78E-09  absolut break condition
   DEPER  =   0.30     relativ break condition  

   TIME   =   0.40     timestep for ELM

  volume/ion in A,a.u.               =    7145.83     48222.46
  Fermi-wavevector in a.u.,A,eV,Ry     =   0.148499  0.280622  0.300035  0.022052
  Thomas-Fermi vector in A             =   0.821704
 
 Write flags
   LWAVE        =      T    write WAVECAR
   LDOWNSAMPLE  =      F    k-point downsampling of WAVECAR
   LCHARG       =      T    write CHGCAR
   LVTOT        =      F    write LOCPOT, total local potential
   LVHAR        =      F    write LOCPOT, Hartree potential only
   LELF         =      F    write electronic localiz. function (ELF)
   LORBIT       =      0    0 simple, 1 ext, 2 COOP (PROOUT), +10 PAW based schemes


 Dipole corrections
   LMONO  =      F    monopole corrections only (constant potential shift)
   LDIPOL =      F    correct potential (dipole corrections)
   IDIPOL =      4    1-x, 2-y, 3-z, 4-all directions 
   EPSILON=  1.0000000 bulk dielectric constant

 Exchange correlation treatment:
   GGA     =    --    GGA type
   LEXCH   =     8    internal setting for exchange type
   VOSKOWN=      0    Vosko Wilk Nusair interpolation
   LHFCALC =     F    Hartree Fock is set to
   LHFONE  =     F    Hartree Fock one center treatment
   AEXX    =    0.0000 exact exchange contribution

 Linear response parameters
   LEPSILON=     F    determine dielectric tensor
   LRPA    =     F    only Hartree local field effects (RPA)
   LNABLA  =     F    use nabla operator in PAW spheres
   LVEL    =     F    velocity operator in full k-point grid
   LINTERFAST=   F  fast interpolation
   KINTER  =     0    interpolate to denser k-point grid
   CSHIFT  =0.1000    complex shift for real part using Kramers Kronig
   OMEGAMAX=  -1.0    maximum frequency
   DEG_THRESHOLD= 0.2000000E-02 threshold for treating states as degnerate
   RTIME   =   -0.100 relaxation time in fs
  (WPLASMAI=    0.000 imaginary part of plasma frequency in eV, 0.658/RTIME)
   DFIELD  = 0.0000000 0.0000000 0.0000000 field for delta impulse in time
 
 Orbital magnetization related:
   ORBITALMAG=     F  switch on orbital magnetization
   LCHIMAG   =     F  perturbation theory with respect to B field
   DQ        =  0.001000  dq finite difference perturbation B field
   LLRAUG    =     F  two centre corrections for induced B field



--------------------------------------------------------------------------------------------------------


 Static calculation
 charge density and potential will be updated during run
 non-spin polarized calculation
 Variant of blocked Davidson
 Davidson routine will perform the subspace rotation
 perform sub-space diagonalisation
    after iterative eigenvector-optimisation
 modified Broyden-mixing scheme, WC =      100.0
 initial mixing is a Kerker type mixing with AMIX =  0.4000 and BMIX =      1.0000
 Hartree-type preconditioning will be used
 using additional bands            16
 reciprocal scheme for non local part
 use partial core corrections
 calculate Harris-corrections to forces 
   (improved forces if not selfconsistent)
 use gradient corrections 
 use of overlap-Matrix (Vanderbilt PP)
 Gauss-broadening in eV      SIGMA  =   0.01


--------------------------------------------------------------------------------------------------------


  energy-cutoff  :     1000.00
  volume of cell :    42875.00
      direct lattice vectors                 reciprocal lattice vectors
    35.000000000  0.000000000  0.000000000     0.028571429  0.000000000  0.000000000
     0.000000000 35.000000000  0.000000000     0.000000000  0.028571429  0.000000000
     0.000000000  0.000000000 35.000000000     0.000000000  0.000000000  0.028571429

  length of vectors
    35.000000000 35.000000000 35.000000000     0.028571429  0.028571429  0.028571429


 
 k-points in units of 2pi/SCALE and weight: g                                       
   0.00000000  0.00000000  0.00000000       1.000
 
 k-points in reciprocal lattice and weights: g                                       
   0.00000000  0.00000000  0.00000000       1.000
 
 position of ions in fractional coordinates (direct lattice) 
   0.00000000  0.00162817  0.00000000
   0.99995729  0.12934790  0.00021554
   0.00000000  0.03506303  0.00000000
   0.00000000  0.96819331  0.00000000
   0.99952212  0.12909504  0.03364661
   0.00039246  0.12960075  0.96678447
 
 position of ions in cartesian coordinates  (Angst):
   0.00000000  0.05698600  0.00000000
  34.99850504  4.52717643  0.00754377
   0.00000000  1.22720600  0.00000000
   0.00000000 33.88676600  0.00000000
  34.98327409  4.51832652  1.17763118
   0.01373599  4.53602633 33.83745636
 


--------------------------------------------------------------------------------------------------------


 use serial FFT for orbitals x direction half grid
 k-point   1 :   0.0000 0.0000 0.0000  plane waves: 1539209

 maximum and minimum number of plane-waves per node :   1539209  1539209

 maximum number of plane-waves:   1539209
 maximum index in each direction: 
   IXMAX=   90   IYMAX=   90   IZMAX=   90
   IXMIN=    0   IYMIN=  -90   IZMIN=  -90


 serial   3D FFT for wavefunctions
 parallel 3D FFT for charge:
    minimum data exchange during FFTs selected (reduces bandwidth)


 total amount of memory used by VASP MPI-rank0  4007897. kBytes
=======================================================================

   base      :      30000. kBytes
   nonl-proj :     344787. kBytes
   fftplans  :     676185. kBytes
   grid      :    2932288. kBytes
   one-center:          9. kBytes
   wavefun   :      24628. kBytes
 
     INWAV:  cpu time    0.0001: real time    0.0000
 Broyden mixing: mesh for mixing (old mesh)
   NGX =181   NGY =181   NGZ =181
  (NGX  =756   NGY  =756   NGZ  =756)
  gives a total of ****** points

 initial charge density was supplied:
 charge density of overlapping atoms calculated
 number of electron      32.0000000 magnetization 
 keeping initial charge density in first step


--------------------------------------------------------------------------------------------------------


 Maximum index for augmentation-charges           764 (set IRDMAX)


--------------------------------------------------------------------------------------------------------


 First call to EWALD:  gamma=   0.051
 Maximum number of real-space cells 3x 3x 3
 Maximum number of reciprocal cells 3x 3x 3

    FEWALD:  cpu time    0.0023: real time    0.0023


--------------------------------------- Iteration      1(   1)  ---------------------------------------


    POTLOK:  cpu time   15.0803: real time   15.1071
    SETDIJ:  cpu time    0.0493: real time    0.0497
     EDDAV:  cpu time   29.6097: real time   29.6704
       DOS:  cpu time    0.0009: real time    0.0009
    --------------------------------------------
      LOOP:  cpu time   44.7403: real time   44.8282

 eigenvalue-minimisations  :   128
 total energy-change (2. order) : 0.2891847E+03  (-0.6383679E+03)
 number of electron      32.0000000 magnetization 
 augmentation part       32.0000000 magnetization 

 Free energy of the ion-electron system (eV)
  ---------------------------------------------------
  alpha Z        PSCENC =         0.09979497
  Ewald energy   TEWEN  =      1874.26936382
  -Hartree energ DENC   =     -3484.61141970
  -exchange      EXHF   =         0.00000000
  -V(xc)+E(xc)   XCENC  =       135.16717066
  PAW double counting   =      1603.24200032    -1611.57549460
  entropy T*S    EENTRO =        -0.00271000
  eigenvalues    EBANDS =      -251.22064680
  atomic energy  EATOM  =      2023.81668923
  Solvation  Ediel_sol  =         0.00000000
  ---------------------------------------------------
  free energy    TOTEN  =       289.18474790 eV

  energy without entropy =      289.18745790  energy(sigma->0) =      289.18610290


--------------------------------------------------------------------------------------------------------




--------------------------------------- Iteration      1(   2)  ---------------------------------------


     EDDAV:  cpu time   29.6575: real time   29.7116
       DOS:  cpu time    0.0002: real time    0.0002
    --------------------------------------------
      LOOP:  cpu time   29.6577: real time   29.7118

 eigenvalue-minimisations  :   128
 total energy-change (2. order) :-0.2442518E+03  (-0.2442049E+03)
 number of electron      32.0000000 magnetization 
 augmentation part       32.0000000 magnetization 

 Free energy of the ion-electron system (eV)
  ---------------------------------------------------
  alpha Z        PSCENC =         0.09979497
  Ewald energy   TEWEN  =      1874.26936382
  -Hartree energ DENC   =     -3484.61141970
  -exchange      EXHF   =         0.00000000
  -V(xc)+E(xc)   XCENC  =       135.16717066
  PAW double counting   =      1603.24200032    -1611.57549460
  entropy T*S    EENTRO =        -0.00000000
  eigenvalues    EBANDS =      -495.47514469
  atomic energy  EATOM  =      2023.81668923
  Solvation  Ediel_sol  =         0.00000000
  ---------------------------------------------------
  free energy    TOTEN  =        44.93296001 eV

  energy without entropy =       44.93296001  energy(sigma->0) =       44.93296001


--------------------------------------------------------------------------------------------------------




--------------------------------------- Iteration      1(   3)  ---------------------------------------


     EDDAV:  cpu time   23.8250: real time   23.8673
       DOS:  cpu time    0.0003: real time    0.0003
    --------------------------------------------
      LOOP:  cpu time   23.8252: real time   23.8675

 eigenvalue-minimisations  :    96
 total energy-change (2. order) :-0.8765859E+02  (-0.8765859E+02)
 number of electron      32.0000000 magnetization 
 augmentation part       32.0000000 magnetization 

 Free energy of the ion-electron system (eV)
  ---------------------------------------------------
  alpha Z        PSCENC =         0.09979497
  Ewald energy   TEWEN  =      1874.26936382
  -Hartree energ DENC   =     -3484.61141970
  -exchange      EXHF   =         0.00000000
  -V(xc)+E(xc)   XCENC  =       135.16717066
  PAW double counting   =      1603.24200032    -1611.57549460
  entropy T*S    EENTRO =        -0.00000000
  eigenvalues    EBANDS =      -583.13373632
  atomic energy  EATOM  =      2023.81668923
  Solvation  Ediel_sol  =         0.00000000
  ---------------------------------------------------
  free energy    TOTEN  =       -42.72563162 eV

  energy without entropy =      -42.72563162  energy(sigma->0) =      -42.72563162


--------------------------------------------------------------------------------------------------------




--------------------------------------- Iteration      1(   4)  ---------------------------------------


     EDDAV:  cpu time   17.9583: real time   17.9916
       DOS:  cpu time    0.0002: real time    0.0002
    --------------------------------------------
      LOOP:  cpu time   17.9585: real time   17.9919

 eigenvalue-minimisations  :    64
 total energy-change (2. order) :-0.6713865E+01  (-0.6713865E+01)
 number of electron      32.0000000 magnetization 
 augmentation part       32.0000000 magnetization 

 Free energy of the ion-electron system (eV)
  ---------------------------------------------------
  alpha Z        PSCENC =         0.09979497
  Ewald energy   TEWEN  =      1874.26936382
  -Hartree energ DENC   =     -3484.61141970
  -exchange      EXHF   =         0.00000000
  -V(xc)+E(xc)   XCENC  =       135.16717066
  PAW double counting   =      1603.24200032    -1611.57549460
  entropy T*S    EENTRO =        -0.00000000
  eigenvalues    EBANDS =      -589.84760169
  atomic energy  EATOM  =      2023.81668923
  Solvation  Ediel_sol  =         0.00000000
  ---------------------------------------------------
  free energy    TOTEN  =       -49.43949699 eV

  energy without entropy =      -49.43949699  energy(sigma->0) =      -49.43949699


--------------------------------------------------------------------------------------------------------




--------------------------------------- Iteration      1(   5)  ---------------------------------------


     EDDAV:  cpu time   29.6220: real time   29.6755
       DOS:  cpu time    0.0003: real time    0.0003
    CHARGE:  cpu time    6.5619: real time    6.5775
    MIXING:  cpu time    0.3101: real time    0.3108
    --------------------------------------------
      LOOP:  cpu time   36.4943: real time   36.5641

 eigenvalue-minimisations  :   128
 total energy-change (2. order) :-0.7107575E-01  (-0.7107576E-01)
 number of electron      32.0000000 magnetization 
 augmentation part        3.0439630 magnetization 

 Broyden mixing:
  rms(total) = 0.13484E+01    rms(broyden)= 0.13484E+01
  rms(prec ) = 0.13762E+01
  weight for this iteration     100.00

 Free energy of the ion-electron system (eV)
  ---------------------------------------------------
  alpha Z        PSCENC =         0.09979497
  Ewald energy   TEWEN  =      1874.26936382
  -Hartree energ DENC   =     -3484.61141970
  -exchange      EXHF   =         0.00000000
  -V(xc)+E(xc)   XCENC  =       135.16717066
  PAW double counting   =      1603.24200032    -1611.57549460
  entropy T*S    EENTRO =        -0.00000000
  eigenvalues    EBANDS =      -589.91867743
  atomic energy  EATOM  =      2023.81668923
  Solvation  Ediel_sol  =         0.00000000
  ---------------------------------------------------
  free energy    TOTEN  =       -49.51057273 eV

  energy without entropy =      -49.51057273  energy(sigma->0) =      -49.51057273


--------------------------------------------------------------------------------------------------------




--------------------------------------- Iteration      1(   6)  ---------------------------------------


    POTLOK:  cpu time   14.8064: real time   14.8334
    SETDIJ:  cpu time    0.0487: real time    0.0488
     EDDAV:  cpu time   17.3101: real time   17.3421
       DOS:  cpu time    0.0114: real time    0.0114
    CHARGE:  cpu time    6.4373: real time    6.4497
    MIXING:  cpu time    0.3370: real time    0.3411
    --------------------------------------------
      LOOP:  cpu time   38.9510: real time   39.0265

 eigenvalue-minimisations  :    64
 total energy-change (2. order) : 0.3117883E+01  (-0.1999663E+01)
 number of electron      32.0000000 magnetization 
 augmentation part        2.6624583 magnetization 

 Broyden mixing:
  rms(total) = 0.61650E+00    rms(broyden)= 0.61649E+00
  rms(prec ) = 0.62233E+00
  weight for this iteration     100.00

 eigenvalues of (default mixing * dielectric matrix)
  average eigenvalue GAMMA=   1.0044
  1.0044

 Free energy of the ion-electron system (eV)
  ---------------------------------------------------
  alpha Z        PSCENC =         0.09979497
  Ewald energy   TEWEN  =      1874.26936382
  -Hartree energ DENC   =     -3537.64445529
  -exchange      EXHF   =         0.00000000
  -V(xc)+E(xc)   XCENC  =       138.34515316
  PAW double counting   =      2134.31791923    -2143.49290009
  entropy T*S    EENTRO =        -0.00000000
  eigenvalues    EBANDS =      -536.10425451
  atomic energy  EATOM  =      2023.81668923
  Solvation  Ediel_sol  =         0.00000000
  ---------------------------------------------------
  free energy    TOTEN  =       -46.39268948 eV

  energy without entropy =      -46.39268948  energy(sigma->0) =      -46.39268948


--------------------------------------------------------------------------------------------------------




--------------------------------------- Iteration      1(   7)  ---------------------------------------


    POTLOK:  cpu time   14.8283: real time   14.8550
    SETDIJ:  cpu time    0.0488: real time    0.0488
     EDDAV:  cpu time   28.7408: real time   28.7935
       DOS:  cpu time    0.0033: real time    0.0033
    CHARGE:  cpu time    6.4173: real time    6.4274
    MIXING:  cpu time    0.3219: real time    0.3232
    --------------------------------------------
      LOOP:  cpu time   50.3603: real time   50.4512

 eigenvalue-minimisations  :   128
 total energy-change (2. order) : 0.2776028E+00  (-0.7923985E-01)
 number of electron      32.0000000 magnetization 
 augmentation part        2.7028568 magnetization 

 Broyden mixing:
  rms(total) = 0.34479E+00    rms(broyden)= 0.34479E+00
  rms(prec ) = 0.34806E+00
  weight for this iteration     100.00

 eigenvalues of (default mixing * dielectric matrix)
  average eigenvalue GAMMA=   1.6364
  0.9125  2.3602

 Free energy of the ion-electron system (eV)
  ---------------------------------------------------
  alpha Z        PSCENC =         0.09979497
  Ewald energy   TEWEN  =      1874.26936382
  -Hartree energ DENC   =     -3546.91957829
  -exchange      EXHF   =         0.00000000
  -V(xc)+E(xc)   XCENC  =       138.70336535
  PAW double counting   =      2486.15178864    -2495.18071931
  entropy T*S    EENTRO =        -0.00000000
  eigenvalues    EBANDS =      -527.05579113
  atomic energy  EATOM  =      2023.81668923
  Solvation  Ediel_sol  =         0.00000000
  ---------------------------------------------------
  free energy    TOTEN  =       -46.11508671 eV

  energy without entropy =      -46.11508671  energy(sigma->0) =      -46.11508671


--------------------------------------------------------------------------------------------------------




--------------------------------------- Iteration      1(   8)  ---------------------------------------


    POTLOK:  cpu time   14.8074: real time   14.8344
    SETDIJ:  cpu time    0.0493: real time    0.0493
     EDDAV:  cpu time   28.6786: real time   28.7312
       DOS:  cpu time    0.0045: real time    0.0045
    CHARGE:  cpu time    6.4198: real time    6.4298
    MIXING:  cpu time    0.3325: real time    0.3332
    --------------------------------------------
      LOOP:  cpu time   50.2920: real time   50.3824

 eigenvalue-minimisations  :   128
 total energy-change (2. order) : 0.1105389E+00  (-0.4305063E-01)
 number of electron      32.0000000 magnetization 
 augmentation part        2.6844035 magnetization 

 Broyden mixing:
  rms(total) = 0.70527E-01    rms(broyden)= 0.70527E-01
  rms(prec ) = 0.72301E-01
  weight for this iteration     100.00

 eigenvalues of (default mixing * dielectric matrix)
  average eigenvalue GAMMA=   1.4348
  2.4419  0.9312  0.9312

 Free energy of the ion-electron system (eV)
  ---------------------------------------------------
  alpha Z        PSCENC =         0.09979497
  Ewald energy   TEWEN  =      1874.26936382
  -Hartree energ DENC   =     -3563.75465382
  -exchange      EXHF   =         0.00000000
  -V(xc)+E(xc)   XCENC  =       139.54185322
  PAW double counting   =      3066.32943667    -3075.34043839
  entropy T*S    EENTRO =        -0.00000000
  eigenvalues    EBANDS =      -510.96659351
  atomic energy  EATOM  =      2023.81668923
  Solvation  Ediel_sol  =         0.00000000
  ---------------------------------------------------
  free energy    TOTEN  =       -46.00454781 eV

  energy without entropy =      -46.00454781  energy(sigma->0) =      -46.00454781


--------------------------------------------------------------------------------------------------------




--------------------------------------- Iteration      1(   9)  ---------------------------------------


    POTLOK:  cpu time   14.8423: real time   14.8694
    SETDIJ:  cpu time    0.0488: real time    0.0488
     EDDAV:  cpu time   28.6115: real time   28.6677
       DOS:  cpu time    0.0147: real time    0.0147
    CHARGE:  cpu time    6.4365: real time    6.4466
    MIXING:  cpu time    0.3469: real time    0.3476
    --------------------------------------------
      LOOP:  cpu time   50.3007: real time   50.3948

 eigenvalue-minimisations  :   128
 total energy-change (2. order) : 0.6635360E-02  (-0.3274477E-02)
 number of electron      32.0000000 magnetization 
 augmentation part        2.6772100 magnetization 

 Broyden mixing:
  rms(total) = 0.30242E-01    rms(broyden)= 0.30242E-01
  rms(prec ) = 0.31286E-01
  weight for this iteration     100.00

 eigenvalues of (default mixing * dielectric matrix)
  average eigenvalue GAMMA=   1.4676
  2.4465  1.0496  1.0761  1.2980

 Free energy of the ion-electron system (eV)
  ---------------------------------------------------
  alpha Z        PSCENC =         0.09979497
  Ewald energy   TEWEN  =      1874.26936382
  -Hartree energ DENC   =     -3563.33979780
  -exchange      EXHF   =         0.00000000
  -V(xc)+E(xc)   XCENC  =       139.51627960
  PAW double counting   =      3104.90334617    -3113.88308830
  entropy T*S    EENTRO =        -0.00000000
  eigenvalues    EBANDS =      -511.38050014
  atomic energy  EATOM  =      2023.81668923
  Solvation  Ediel_sol  =         0.00000000
  ---------------------------------------------------
  free energy    TOTEN  =       -45.99791245 eV

  energy without entropy =      -45.99791245  energy(sigma->0) =      -45.99791245


--------------------------------------------------------------------------------------------------------




--------------------------------------- Iteration      1(  10)  ---------------------------------------


    POTLOK:  cpu time   14.7691: real time   14.8042
    SETDIJ:  cpu time    0.0488: real time    0.0488
     EDDAV:  cpu time   28.6462: real time   28.6982
       DOS:  cpu time    0.0110: real time    0.0110
    CHARGE:  cpu time    6.4776: real time    6.4876
    MIXING:  cpu time    0.3649: real time    0.3658
    --------------------------------------------
      LOOP:  cpu time   50.3176: real time   50.4157

 eigenvalue-minimisations  :   128
 total energy-change (2. order) :-0.2356194E-02  (-0.5188982E-03)
 number of electron      32.0000000 magnetization 
 augmentation part        2.6810297 magnetization 

 Broyden mixing:
  rms(total) = 0.85718E-02    rms(broyden)= 0.85718E-02
  rms(prec ) = 0.99314E-02
  weight for this iteration     100.00

 eigenvalues of (default mixing * dielectric matrix)
  average eigenvalue GAMMA=   1.4499
  2.3952  1.5261  1.5261  0.9010  0.9010

 Free energy of the ion-electron system (eV)
  ---------------------------------------------------
  alpha Z        PSCENC =         0.09979497
  Ewald energy   TEWEN  =      1874.26936382
  -Hartree energ DENC   =     -3562.95370381
  -exchange      EXHF   =         0.00000000
  -V(xc)+E(xc)   XCENC  =       139.46879623
  PAW double counting   =      3114.25782760    -3123.19823301
  entropy T*S    EENTRO =        -0.00000000
  eigenvalues    EBANDS =      -511.76080367
  atomic energy  EATOM  =      2023.81668923
  Solvation  Ediel_sol  =         0.00000000
  ---------------------------------------------------
  free energy    TOTEN  =       -46.00026865 eV

  energy without entropy =      -46.00026865  energy(sigma->0) =      -46.00026865


--------------------------------------------------------------------------------------------------------




--------------------------------------- Iteration      1(  11)  ---------------------------------------


    POTLOK:  cpu time   14.7943: real time   14.8208
    SETDIJ:  cpu time    0.0488: real time    0.0488
     EDDAV:  cpu time   28.6563: real time   28.7090
       DOS:  cpu time    0.0046: real time    0.0046
    CHARGE:  cpu time    6.4424: real time    6.4528
    MIXING:  cpu time    0.3857: real time    0.3865
    --------------------------------------------
      LOOP:  cpu time   50.3321: real time   50.4226

 eigenvalue-minimisations  :   128
 total energy-change (2. order) :-0.2774597E-02  (-0.4315637E-04)
 number of electron      32.0000000 magnetization 
 augmentation part        2.6804876 magnetization 

 Broyden mixing:
  rms(total) = 0.48019E-02    rms(broyden)= 0.48019E-02
  rms(prec ) = 0.60851E-02
  weight for this iteration     100.00

 eigenvalues of (default mixing * dielectric matrix)
  average eigenvalue GAMMA=   1.5695
  2.7285  2.5127  1.4100  0.9854  0.9854  0.7952

 Free energy of the ion-electron system (eV)
  ---------------------------------------------------
  alpha Z        PSCENC =         0.09979497
  Ewald energy   TEWEN  =      1874.26936382
  -Hartree energ DENC   =     -3563.46379798
  -exchange      EXHF   =         0.00000000
  -V(xc)+E(xc)   XCENC  =       139.47609391
  PAW double counting   =      3112.57920502    -3121.51195180
  entropy T*S    EENTRO =        -0.00000000
  eigenvalues    EBANDS =      -511.26844041
  atomic energy  EATOM  =      2023.81668923
  Solvation  Ediel_sol  =         0.00000000
  ---------------------------------------------------
  free energy    TOTEN  =       -46.00304324 eV

  energy without entropy =      -46.00304324  energy(sigma->0) =      -46.00304324


--------------------------------------------------------------------------------------------------------




--------------------------------------- Iteration      1(  12)  ---------------------------------------


    POTLOK:  cpu time   14.7336: real time   14.7605
    SETDIJ:  cpu time    0.0489: real time    0.0489
     EDDAV:  cpu time   17.3607: real time   17.3927
       DOS:  cpu time    0.0109: real time    0.0109
    CHARGE:  cpu time    6.4022: real time    6.4121
    MIXING:  cpu time    0.4040: real time    0.4048
    --------------------------------------------
      LOOP:  cpu time   38.9602: real time   39.0299

 eigenvalue-minimisations  :    64
 total energy-change (2. order) :-0.3716640E-02  (-0.5623667E-04)
 number of electron      32.0000000 magnetization 
 augmentation part        2.6799210 magnetization 

 Broyden mixing:
  rms(total) = 0.26750E-02    rms(broyden)= 0.26750E-02
  rms(prec ) = 0.34715E-02
  weight for this iteration     100.00

 eigenvalues of (default mixing * dielectric matrix)
  average eigenvalue GAMMA=   1.6248
  3.3107  2.4342  1.5344  1.4239  0.9333  0.9333  0.8036

 Free energy of the ion-electron system (eV)
  ---------------------------------------------------
  alpha Z        PSCENC =         0.09979497
  Ewald energy   TEWEN  =      1874.26936382
  -Hartree energ DENC   =     -3564.28109836
  -exchange      EXHF   =         0.00000000
  -V(xc)+E(xc)   XCENC  =       139.48998773
  PAW double counting   =      3113.53812493    -3122.46327318
  entropy T*S    EENTRO =        -0.00000000
  eigenvalues    EBANDS =      -510.47634901
  atomic energy  EATOM  =      2023.81668923
  Solvation  Ediel_sol  =         0.00000000
  ---------------------------------------------------
  free energy    TOTEN  =       -46.00675988 eV

  energy without entropy =      -46.00675988  energy(sigma->0) =      -46.00675988


--------------------------------------------------------------------------------------------------------




--------------------------------------- Iteration      1(  13)  ---------------------------------------


    POTLOK:  cpu time   14.8546: real time   14.8840
    SETDIJ:  cpu time    0.0487: real time    0.0487
     EDDAV:  cpu time   22.9717: real time   23.0141
       DOS:  cpu time    0.0067: real time    0.0067
    CHARGE:  cpu time    6.3847: real time    6.3943
    MIXING:  cpu time    0.4223: real time    0.4232
    --------------------------------------------
      LOOP:  cpu time   44.6886: real time   44.7710

 eigenvalue-minimisations  :    96
 total energy-change (2. order) :-0.2439339E-02  (-0.2961724E-04)
 number of electron      32.0000000 magnetization 
 augmentation part        2.6798726 magnetization 

 Broyden mixing:
  rms(total) = 0.15267E-02    rms(broyden)= 0.15267E-02
  rms(prec ) = 0.20794E-02
  weight for this iteration     100.00

 eigenvalues of (default mixing * dielectric matrix)
  average eigenvalue GAMMA=   1.7478
  4.0999  2.4445  2.1941  1.5933  0.9552  0.9552  0.8700  0.8700

 Free energy of the ion-electron system (eV)
  ---------------------------------------------------
  alpha Z        PSCENC =         0.09979497
  Ewald energy   TEWEN  =      1874.26936382
  -Hartree energ DENC   =     -3564.77658612
  -exchange      EXHF   =         0.00000000
  -V(xc)+E(xc)   XCENC  =       139.49715605
  PAW double counting   =      3113.12345447    -3122.05010575
  entropy T*S    EENTRO =        -0.00000000
  eigenvalues    EBANDS =      -509.98896590
  atomic energy  EATOM  =      2023.81668923
  Solvation  Ediel_sol  =         0.00000000
  ---------------------------------------------------
  free energy    TOTEN  =       -46.00919922 eV

  energy without entropy =      -46.00919922  energy(sigma->0) =      -46.00919922


--------------------------------------------------------------------------------------------------------




--------------------------------------- Iteration      1(  14)  ---------------------------------------


    POTLOK:  cpu time   14.7897: real time   14.8169
    SETDIJ:  cpu time    0.0487: real time    0.0488
     EDDAV:  cpu time   22.9097: real time   22.9515
       DOS:  cpu time    0.0008: real time    0.0008
    CHARGE:  cpu time    6.4607: real time    6.4707
    MIXING:  cpu time    0.4412: real time    0.4421
    --------------------------------------------
      LOOP:  cpu time   44.6508: real time   44.7308

 eigenvalue-minimisations  :    96
 total energy-change (2. order) :-0.1872725E-02  (-0.2018049E-04)
 number of electron      32.0000000 magnetization 
 augmentation part        2.6798979 magnetization 

 Broyden mixing:
  rms(total) = 0.79139E-03    rms(broyden)= 0.79139E-03
  rms(prec ) = 0.11150E-02
  weight for this iteration     100.00

 eigenvalues of (default mixing * dielectric matrix)
  average eigenvalue GAMMA=   1.8360
  5.0161  2.7217  2.4144  1.3696  1.3696  0.9433  0.9433  0.8605  0.8854

 Free energy of the ion-electron system (eV)
  ---------------------------------------------------
  alpha Z        PSCENC =         0.09979497
  Ewald energy   TEWEN  =      1874.26936382
  -Hartree energ DENC   =     -3565.08423045
  -exchange      EXHF   =         0.00000000
  -V(xc)+E(xc)   XCENC  =       139.49749366
  PAW double counting   =      3112.34009520    -3121.26830805
  entropy T*S    EENTRO =        -0.00000000
  eigenvalues    EBANDS =      -509.68197033
  atomic energy  EATOM  =      2023.81668923
  Solvation  Ediel_sol  =         0.00000000
  ---------------------------------------------------
  free energy    TOTEN  =       -46.01107195 eV

  energy without entropy =      -46.01107195  energy(sigma->0) =      -46.01107195


--------------------------------------------------------------------------------------------------------




--------------------------------------- Iteration      1(  15)  ---------------------------------------


    POTLOK:  cpu time   14.7301: real time   14.7568
    SETDIJ:  cpu time    0.0488: real time    0.0489
     EDDAV:  cpu time   22.9442: real time   22.9905
       DOS:  cpu time    0.0010: real time    0.0010
    CHARGE:  cpu time    6.3983: real time    6.4099
    MIXING:  cpu time    0.4998: real time    0.5021
    --------------------------------------------
      LOOP:  cpu time   44.6223: real time   44.7093

 eigenvalue-minimisations  :    96
 total energy-change (2. order) :-0.8927058E-03  (-0.4734531E-05)
 number of electron      32.0000000 magnetization 
 augmentation part        2.6798146 magnetization 

 Broyden mixing:
  rms(total) = 0.66971E-03    rms(broyden)= 0.66970E-03
  rms(prec ) = 0.84510E-03
  weight for this iteration     100.00

 eigenvalues of (default mixing * dielectric matrix)
  average eigenvalue GAMMA=   1.8886
  5.6550  2.9464  2.4091  1.6819  1.6819  0.9483  0.9483  0.8900  0.8900  0.8346

 Free energy of the ion-electron system (eV)
  ---------------------------------------------------
  alpha Z        PSCENC =         0.09979497
  Ewald energy   TEWEN  =      1874.26936382
  -Hartree energ DENC   =     -3565.22763385
  -exchange      EXHF   =         0.00000000
  -V(xc)+E(xc)   XCENC  =       139.49815490
  PAW double counting   =      3112.13745579    -3121.06603612
  entropy T*S    EENTRO =        -0.00000000
  eigenvalues    EBANDS =      -509.53975340
  atomic energy  EATOM  =      2023.81668923
  Solvation  Ediel_sol  =         0.00000000
  ---------------------------------------------------
  free energy    TOTEN  =       -46.01196465 eV

  energy without entropy =      -46.01196465  energy(sigma->0) =      -46.01196465


--------------------------------------------------------------------------------------------------------




--------------------------------------- Iteration      1(  16)  ---------------------------------------


    POTLOK:  cpu time   14.8010: real time   14.8282
    SETDIJ:  cpu time    0.0487: real time    0.0488
     EDDAV:  cpu time   17.2688: real time   17.3003
       DOS:  cpu time    0.0046: real time    0.0046
    CHARGE:  cpu time    6.3048: real time    6.3145
    MIXING:  cpu time    0.4976: real time    0.4987
    --------------------------------------------
      LOOP:  cpu time   38.9255: real time   38.9950

 eigenvalue-minimisations  :    64
 total energy-change (2. order) :-0.7099405E-03  (-0.2573773E-05)
 number of electron      32.0000000 magnetization 
 augmentation part        2.6797783 magnetization 

 Broyden mixing:
  rms(total) = 0.29576E-03    rms(broyden)= 0.29576E-03
  rms(prec ) = 0.42790E-03
  weight for this iteration     100.00

 eigenvalues of (default mixing * dielectric matrix)
  average eigenvalue GAMMA=   2.0135
  6.5893  3.6260  2.4968  2.3247  1.5473  1.1026  0.9468  0.9468  0.8912  0.8912
  0.7857

 Free energy of the ion-electron system (eV)
  ---------------------------------------------------
  alpha Z        PSCENC =         0.09979497
  Ewald energy   TEWEN  =      1874.26936382
  -Hartree energ DENC   =     -3565.27594030
  -exchange      EXHF   =         0.00000000
  -V(xc)+E(xc)   XCENC  =       139.49679260
  PAW double counting   =      3112.38095879    -3121.30843215
  entropy T*S    EENTRO =        -0.00000000
  eigenvalues    EBANDS =      -509.49190156
  atomic energy  EATOM  =      2023.81668923
  Solvation  Ediel_sol  =         0.00000000
  ---------------------------------------------------
  free energy    TOTEN  =       -46.01267459 eV

  energy without entropy =      -46.01267459  energy(sigma->0) =      -46.01267459


--------------------------------------------------------------------------------------------------------




--------------------------------------- Iteration      1(  17)  ---------------------------------------


    POTLOK:  cpu time   14.7264: real time   14.7526
    SETDIJ:  cpu time    0.0487: real time    0.0488
     EDDAV:  cpu time   28.4383: real time   28.4928
       DOS:  cpu time    0.0049: real time    0.0049
    CHARGE:  cpu time    6.4347: real time    6.4448
    MIXING:  cpu time    0.5185: real time    0.5196
    --------------------------------------------
      LOOP:  cpu time   50.1717: real time   50.2636

 eigenvalue-minimisations  :   128
 total energy-change (2. order) :-0.4563536E-03  (-0.1963264E-05)
 number of electron      32.0000000 magnetization 
 augmentation part        2.6797463 magnetization 

 Broyden mixing:
  rms(total) = 0.24188E-03    rms(broyden)= 0.24188E-03
  rms(prec ) = 0.29511E-03
  weight for this iteration     100.00

 eigenvalues of (default mixing * dielectric matrix)
  average eigenvalue GAMMA=   2.0963
  7.2337  3.8689  2.5334  2.5334  1.9053  1.6150  0.9595  0.9595  0.9516  0.9073
  0.9073  0.7809

 Free energy of the ion-electron system (eV)
  ---------------------------------------------------
  alpha Z        PSCENC =         0.09979497
  Ewald energy   TEWEN  =      1874.26936382
  -Hartree energ DENC   =     -3565.30928382
  -exchange      EXHF   =         0.00000000
  -V(xc)+E(xc)   XCENC  =       139.49615363
  PAW double counting   =      3112.60043111    -3121.52723026
  entropy T*S    EENTRO =        -0.00000000
  eigenvalues    EBANDS =      -509.45904963
  atomic energy  EATOM  =      2023.81668923
  Solvation  Ediel_sol  =         0.00000000
  ---------------------------------------------------
  free energy    TOTEN  =       -46.01313095 eV

  energy without entropy =      -46.01313095  energy(sigma->0) =      -46.01313095


--------------------------------------------------------------------------------------------------------




--------------------------------------- Iteration      1(  18)  ---------------------------------------


    POTLOK:  cpu time   14.7439: real time   14.7705
    SETDIJ:  cpu time    0.0495: real time    0.0496
     EDDAV:  cpu time   28.3863: real time   28.4390
       DOS:  cpu time    0.0009: real time    0.0009
    CHARGE:  cpu time    6.4592: real time    6.4693
    MIXING:  cpu time    0.5604: real time    0.5616
    --------------------------------------------
      LOOP:  cpu time   50.2003: real time   50.2908

 eigenvalue-minimisations  :   128
 total energy-change (2. order) :-0.2351443E-03  (-0.4922455E-06)
 number of electron      32.0000000 magnetization 
 augmentation part        2.6797660 magnetization 

 Broyden mixing:
  rms(total) = 0.93524E-04    rms(broyden)= 0.93524E-04
  rms(prec ) = 0.12752E-03
  weight for this iteration     100.00

 eigenvalues of (default mixing * dielectric matrix)
  average eigenvalue GAMMA=   2.1911
  7.9730  4.7382  3.0112  2.4185  2.2612  1.5483  1.1030  0.9546  0.9546  0.9036
  0.9036  0.9303  0.7835

 Free energy of the ion-electron system (eV)
  ---------------------------------------------------
  alpha Z        PSCENC =         0.09979497
  Ewald energy   TEWEN  =      1874.26936382
  -Hartree energ DENC   =     -3565.31992928
  -exchange      EXHF   =         0.00000000
  -V(xc)+E(xc)   XCENC  =       139.49561263
  PAW double counting   =      3112.37988264    -3121.30702948
  entropy T*S    EENTRO =        -0.00000000
  eigenvalues    EBANDS =      -509.44775062
  atomic energy  EATOM  =      2023.81668923
  Solvation  Ediel_sol  =         0.00000000
  ---------------------------------------------------
  free energy    TOTEN  =       -46.01336609 eV

  energy without entropy =      -46.01336609  energy(sigma->0) =      -46.01336609


--------------------------------------------------------------------------------------------------------




--------------------------------------- Iteration      1(  19)  ---------------------------------------


    POTLOK:  cpu time   14.7606: real time   14.7880
    SETDIJ:  cpu time    0.0501: real time    0.0501
     EDDAV:  cpu time   17.2335: real time   17.2647
       DOS:  cpu time    0.0003: real time    0.0003
    CHARGE:  cpu time    6.4450: real time    6.4547
    MIXING:  cpu time    0.6494: real time    0.6505
    --------------------------------------------
      LOOP:  cpu time   39.1390: real time   39.2083

 eigenvalue-minimisations  :    64
 total energy-change (2. order) :-0.8882678E-04  (-0.1590306E-06)
 number of electron      32.0000000 magnetization 
 augmentation part        2.6797612 magnetization 

 Broyden mixing:
  rms(total) = 0.57860E-04    rms(broyden)= 0.57860E-04
  rms(prec ) = 0.76505E-04
  weight for this iteration     100.00

 eigenvalues of (default mixing * dielectric matrix)
  average eigenvalue GAMMA=   2.3128
  8.6032  5.2114  3.3830  2.6076  2.2596  2.2596  1.5593  1.0417  0.9498  0.9498
  0.9209  0.9209  0.9296  0.7834

 Free energy of the ion-electron system (eV)
  ---------------------------------------------------
  alpha Z        PSCENC =         0.09979497
  Ewald energy   TEWEN  =      1874.26936382
  -Hartree energ DENC   =     -3565.32802204
  -exchange      EXHF   =         0.00000000
  -V(xc)+E(xc)   XCENC  =       139.49566377
  PAW double counting   =      3112.39235108    -3121.31965567
  entropy T*S    EENTRO =        -0.00000000
  eigenvalues    EBANDS =      -509.43964008
  atomic energy  EATOM  =      2023.81668923
  Solvation  Ediel_sol  =         0.00000000
  ---------------------------------------------------
  free energy    TOTEN  =       -46.01345492 eV

  energy without entropy =      -46.01345492  energy(sigma->0) =      -46.01345492


--------------------------------------------------------------------------------------------------------




--------------------------------------- Iteration      1(  20)  ---------------------------------------


    POTLOK:  cpu time   14.7176: real time   14.7445
    SETDIJ:  cpu time    0.0885: real time    0.0886
     EDDAV:  cpu time   22.8642: real time   22.9056
       DOS:  cpu time    0.0010: real time    0.0010
    CHARGE:  cpu time    6.3687: real time    6.3784
    MIXING:  cpu time    0.6270: real time    0.6282
    --------------------------------------------
      LOOP:  cpu time   44.6669: real time   44.7462

 eigenvalue-minimisations  :    96
 total energy-change (2. order) :-0.6346608E-04  (-0.5929300E-07)
 number of electron      32.0000000 magnetization 
 augmentation part        2.6797553 magnetization 

 Broyden mixing:
  rms(total) = 0.25805E-04    rms(broyden)= 0.25805E-04
  rms(prec ) = 0.33045E-04
  weight for this iteration     100.00

 eigenvalues of (default mixing * dielectric matrix)
  average eigenvalue GAMMA=   2.3248
  8.9417  5.5839  3.7214  2.7730  2.4301  2.1696  1.5464  1.2168  1.0518  0.9452
  0.9452  0.9228  0.9228  0.9176  0.7837

 Free energy of the ion-electron system (eV)
  ---------------------------------------------------
  alpha Z        PSCENC =         0.09979497
  Ewald energy   TEWEN  =      1874.26936382
  -Hartree energ DENC   =     -3565.33361484
  -exchange      EXHF   =         0.00000000
  -V(xc)+E(xc)   XCENC  =       139.49566895
  PAW double counting   =      3112.40068157    -3121.32793765
  entropy T*S    EENTRO =        -0.00000000
  eigenvalues    EBANDS =      -509.43416444
  atomic energy  EATOM  =      2023.81668923
  Solvation  Ediel_sol  =         0.00000000
  ---------------------------------------------------
  free energy    TOTEN  =       -46.01351838 eV

  energy without entropy =      -46.01351838  energy(sigma->0) =      -46.01351838


--------------------------------------------------------------------------------------------------------




--------------------------------------- Iteration      1(  21)  ---------------------------------------


    POTLOK:  cpu time   14.7124: real time   14.7392
    SETDIJ:  cpu time    0.0488: real time    0.0488
     EDDAV:  cpu time   28.4614: real time   28.5140
       DOS:  cpu time    0.0024: real time    0.0024
    CHARGE:  cpu time    6.4686: real time    6.4821
    MIXING:  cpu time    0.6455: real time    0.6468
    --------------------------------------------
      LOOP:  cpu time   50.3390: real time   50.4332

 eigenvalue-minimisations  :   128
 total energy-change (2. order) :-0.1398893E-04  (-0.1170169E-07)
 number of electron      32.0000000 magnetization 
 augmentation part        2.6797579 magnetization 

 Broyden mixing:
  rms(total) = 0.15423E-04    rms(broyden)= 0.15423E-04
  rms(prec ) = 0.19969E-04
  weight for this iteration     100.00

 eigenvalues of (default mixing * dielectric matrix)
  average eigenvalue GAMMA=   2.4136
  9.3077  6.0379  4.2882  3.0382  2.5163  2.1989  2.1989  1.5510  1.0573  0.9478
  0.9478  0.9286  0.9286  0.9435  0.9435  0.7836

 Free energy of the ion-electron system (eV)
  ---------------------------------------------------
  alpha Z        PSCENC =         0.09979497
  Ewald energy   TEWEN  =      1874.26936382
  -Hartree energ DENC   =     -3565.33357017
  -exchange      EXHF   =         0.00000000
  -V(xc)+E(xc)   XCENC  =       139.49561438
  PAW double counting   =      3112.41713700    -3121.34437081
  entropy T*S    EENTRO =        -0.00000000
  eigenvalues    EBANDS =      -509.43419080
  atomic energy  EATOM  =      2023.81668923
  Solvation  Ediel_sol  =         0.00000000
  ---------------------------------------------------
  free energy    TOTEN  =       -46.01353237 eV

  energy without entropy =      -46.01353237  energy(sigma->0) =      -46.01353237


--------------------------------------------------------------------------------------------------------




--------------------------------------- Iteration      1(  22)  ---------------------------------------


    POTLOK:  cpu time   14.6744: real time   14.7006
    SETDIJ:  cpu time    0.0489: real time    0.0489
     EDDAV:  cpu time   22.8615: real time   22.9031
       DOS:  cpu time    0.0110: real time    0.0110
    CHARGE:  cpu time    6.4339: real time    6.4438
    MIXING:  cpu time    0.7084: real time    0.7097
    --------------------------------------------
      LOOP:  cpu time   44.7380: real time   44.8172

 eigenvalue-minimisations  :    96
 total energy-change (2. order) :-0.1102391E-04  (-0.1026198E-07)
 number of electron      32.0000000 magnetization 
 augmentation part        2.6797570 magnetization 

 Broyden mixing:
  rms(total) = 0.74032E-05    rms(broyden)= 0.74032E-05
  rms(prec ) = 0.93626E-05
  weight for this iteration     100.00

 eigenvalues of (default mixing * dielectric matrix)
  average eigenvalue GAMMA=   2.3872
  9.4069  6.3265  4.4568  3.1415  2.5175  2.4122  2.1560  1.5443  1.1809  0.7838
  0.9483  0.9483  1.0612  0.9277  0.9277  0.9211  0.9211

 Free energy of the ion-electron system (eV)
  ---------------------------------------------------
  alpha Z        PSCENC =         0.09979497
  Ewald energy   TEWEN  =      1874.26936382
  -Hartree energ DENC   =     -3565.33437426
  -exchange      EXHF   =         0.00000000
  -V(xc)+E(xc)   XCENC  =       139.49561399
  PAW double counting   =      3112.42081960    -3121.34803717
  entropy T*S    EENTRO =        -0.00000000
  eigenvalues    EBANDS =      -509.43341358
  atomic energy  EATOM  =      2023.81668923
  Solvation  Ediel_sol  =         0.00000000
  ---------------------------------------------------
  free energy    TOTEN  =       -46.01354340 eV

  energy without entropy =      -46.01354340  energy(sigma->0) =      -46.01354340


--------------------------------------------------------------------------------------------------------




--------------------------------------- Iteration      1(  23)  ---------------------------------------


    POTLOK:  cpu time   14.7496: real time   14.7754
    SETDIJ:  cpu time    0.0487: real time    0.0487
     EDDAV:  cpu time   28.4304: real time   28.4852
       DOS:  cpu time    0.0018: real time    0.0018
    CHARGE:  cpu time    6.4152: real time    6.4251
    MIXING:  cpu time    0.7217: real time    0.7232
    --------------------------------------------
      LOOP:  cpu time   50.3673: real time   50.4593

 eigenvalue-minimisations  :   128
 total energy-change (2. order) :-0.2620055E-05  (-0.6221097E-08)
 number of electron      32.0000000 magnetization 
 augmentation part        2.6797563 magnetization 

 Broyden mixing:
  rms(total) = 0.51487E-05    rms(broyden)= 0.51487E-05
  rms(prec ) = 0.64484E-05
  weight for this iteration     100.00

 eigenvalues of (default mixing * dielectric matrix)
  average eigenvalue GAMMA=   2.4462
  9.5461  6.7015  4.7559  3.5642  2.8029  2.4766  2.1059  2.1059  1.5460  1.0893
  0.9486  0.9486  0.7838  0.9336  0.9336  0.9440  0.9440  0.9010

 Free energy of the ion-electron system (eV)
  ---------------------------------------------------
  alpha Z        PSCENC =         0.09979497
  Ewald energy   TEWEN  =      1874.26936382
  -Hartree energ DENC   =     -3565.33451106
  -exchange      EXHF   =         0.00000000
  -V(xc)+E(xc)   XCENC  =       139.49561782
  PAW double counting   =      3112.41516335    -3121.34238552
  entropy T*S    EENTRO =        -0.00000000
  eigenvalues    EBANDS =      -509.43327863
  atomic energy  EATOM  =      2023.81668923
  Solvation  Ediel_sol  =         0.00000000
  ---------------------------------------------------
  free energy    TOTEN  =       -46.01354602 eV

  energy without entropy =      -46.01354602  energy(sigma->0) =      -46.01354602


--------------------------------------------------------------------------------------------------------




--------------------------------------- Iteration      1(  24)  ---------------------------------------


    POTLOK:  cpu time   14.6889: real time   14.7162
    SETDIJ:  cpu time    0.0487: real time    0.0488
     EDDAV:  cpu time   17.1940: real time   17.2403
       DOS:  cpu time    0.0002: real time    0.0002
    CHARGE:  cpu time    6.3865: real time    6.3968
    MIXING:  cpu time    0.7686: real time    0.7701
    --------------------------------------------
      LOOP:  cpu time   39.0868: real time   39.1724

 eigenvalue-minimisations  :    64
 total energy-change (2. order) :-0.2499377E-05  (-0.5684367E-08)
 number of electron      32.0000000 magnetization 
 augmentation part        2.6797568 magnetization 

 Broyden mixing:
  rms(total) = 0.21152E-05    rms(broyden)= 0.21152E-05
  rms(prec ) = 0.27703E-05
  weight for this iteration     100.00

 eigenvalues of (default mixing * dielectric matrix)
  average eigenvalue GAMMA=   2.4382
  9.6552  6.8818  5.0676  3.8044  2.9292  2.4419  2.2955  2.1479  1.5443  0.9511
  0.9511  1.1221  1.0884  0.7836  0.9211  0.9211  0.9715  0.9715  0.8775

 Free energy of the ion-electron system (eV)
  ---------------------------------------------------
  alpha Z        PSCENC =         0.09979497
  Ewald energy   TEWEN  =      1874.26936382
  -Hartree energ DENC   =     -3565.33433549
  -exchange      EXHF   =         0.00000000
  -V(xc)+E(xc)   XCENC  =       139.49560775
  PAW double counting   =      3112.41266728    -3121.33989676
  entropy T*S    EENTRO =        -0.00000000
  eigenvalues    EBANDS =      -509.43343931
  atomic energy  EATOM  =      2023.81668923
  Solvation  Ediel_sol  =         0.00000000
  ---------------------------------------------------
  free energy    TOTEN  =       -46.01354852 eV

  energy without entropy =      -46.01354852  energy(sigma->0) =      -46.01354852


--------------------------------------------------------------------------------------------------------




--------------------------------------- Iteration      1(  25)  ---------------------------------------


    POTLOK:  cpu time   14.7042: real time   14.7311
    SETDIJ:  cpu time    0.0488: real time    0.0488
     EDDAV:  cpu time   28.3762: real time   28.4322
       DOS:  cpu time    0.0110: real time    0.0110
    CHARGE:  cpu time    6.4556: real time    6.4662
    MIXING:  cpu time    0.8026: real time    0.8043
    --------------------------------------------
      LOOP:  cpu time   50.3983: real time   50.4935

 eigenvalue-minimisations  :   128
 total energy-change (2. order) :-0.5981910E-06  (-0.4934630E-08)
 number of electron      32.0000000 magnetization 
 augmentation part        2.6797570 magnetization 

 Broyden mixing:
  rms(total) = 0.14935E-05    rms(broyden)= 0.14935E-05
  rms(prec ) = 0.19015E-05
  weight for this iteration     100.00

 eigenvalues of (default mixing * dielectric matrix)
  average eigenvalue GAMMA=   2.4848
  9.7209  7.1426  5.4066  4.0696  3.1549  2.6397  2.4163  2.1858  1.9430  1.5441
  1.1179  0.7837  0.9481  0.9481  1.0083  1.0083  0.9235  0.9235  0.9211  0.8896

 Free energy of the ion-electron system (eV)
  ---------------------------------------------------
  alpha Z        PSCENC =         0.09979497
  Ewald energy   TEWEN  =      1874.26936382
  -Hartree energ DENC   =     -3565.33432177
  -exchange      EXHF   =         0.00000000
  -V(xc)+E(xc)   XCENC  =       139.49560654
  PAW double counting   =      3112.41373475    -3121.34096529
  entropy T*S    EENTRO =        -0.00000000
  eigenvalues    EBANDS =      -509.43345136
  atomic energy  EATOM  =      2023.81668923
  Solvation  Ediel_sol  =         0.00000000
  ---------------------------------------------------
  free energy    TOTEN  =       -46.01354911 eV

  energy without entropy =      -46.01354911  energy(sigma->0) =      -46.01354911


--------------------------------------------------------------------------------------------------------




--------------------------------------- Iteration      1(  26)  ---------------------------------------


    POTLOK:  cpu time   14.7076: real time   14.7386
    SETDIJ:  cpu time    0.0496: real time    0.0496
     EDDAV:  cpu time   17.1746: real time   17.2062
       DOS:  cpu time    0.0065: real time    0.0065
    CHARGE:  cpu time    6.4052: real time    6.4158
    MIXING:  cpu time    0.8719: real time    0.8736
    --------------------------------------------
      LOOP:  cpu time   39.2154: real time   39.2903

 eigenvalue-minimisations  :    64
 total energy-change (2. order) :-0.5063039E-06  (-0.4262553E-08)
 number of electron      32.0000000 magnetization 
 augmentation part        2.6797569 magnetization 

 Broyden mixing:
  rms(total) = 0.77219E-06    rms(broyden)= 0.77219E-06
  rms(prec ) = 0.96006E-06
  weight for this iteration     100.00

 eigenvalues of (default mixing * dielectric matrix)
  average eigenvalue GAMMA=   2.4754
  9.7404  7.3433  5.5916  4.2918  3.3348  2.7661  2.4527  2.1779  2.1342  1.5420
  1.1620  0.7838  0.9499  0.9499  1.0522  1.0522  0.9281  0.9281  0.9434  0.9434
  0.9154

 Free energy of the ion-electron system (eV)
  ---------------------------------------------------
  alpha Z        PSCENC =         0.09979497
  Ewald energy   TEWEN  =      1874.26936382
  -Hartree energ DENC   =     -3565.33430497
  -exchange      EXHF   =         0.00000000
  -V(xc)+E(xc)   XCENC  =       139.49560713
  PAW double counting   =      3112.41430355    -3121.34153278
  entropy T*S    EENTRO =        -0.00000000
  eigenvalues    EBANDS =      -509.43347058
  atomic energy  EATOM  =      2023.81668923
  Solvation  Ediel_sol  =         0.00000000
  ---------------------------------------------------
  free energy    TOTEN  =       -46.01354962 eV

  energy without entropy =      -46.01354962  energy(sigma->0) =      -46.01354962


--------------------------------------------------------------------------------------------------------




--------------------------------------- Iteration      1(  27)  ---------------------------------------


    POTLOK:  cpu time   14.7854: real time   14.8136
    SETDIJ:  cpu time    0.0488: real time    0.0488
     EDDAV:  cpu time   28.3572: real time   28.4095
       DOS:  cpu time    0.0004: real time    0.0004
    CHARGE:  cpu time    6.3760: real time    6.3889
    MIXING:  cpu time    0.8922: real time    0.8940
    --------------------------------------------
      LOOP:  cpu time   50.4600: real time   50.5553

 eigenvalue-minimisations  :   128
 total energy-change (2. order) :-0.1363082E-06  (-0.3655753E-08)
 number of electron      32.0000000 magnetization 
 augmentation part        2.6797568 magnetization 

 Broyden mixing:
  rms(total) = 0.45903E-06    rms(broyden)= 0.45903E-06
  rms(prec ) = 0.58056E-06
  weight for this iteration     100.00

 eigenvalues of (default mixing * dielectric matrix)
  average eigenvalue GAMMA=   2.4973
  9.7821  7.5317  5.8569  4.5480  3.4959  2.9296  2.4656  2.2963  2.2145  1.7866
  1.5419  1.1597  0.7838  0.9482  0.9482  1.0166  1.0166  0.9118  0.9393  0.9393
  0.9138  0.9138

 Free energy of the ion-electron system (eV)
  ---------------------------------------------------
  alpha Z        PSCENC =         0.09979497
  Ewald energy   TEWEN  =      1874.26936382
  -Hartree energ DENC   =     -3565.33428408
  -exchange      EXHF   =         0.00000000
  -V(xc)+E(xc)   XCENC  =       139.49560729
  PAW double counting   =      3112.41467960    -3121.34190804
  entropy T*S    EENTRO =        -0.00000000
  eigenvalues    EBANDS =      -509.43349254
  atomic energy  EATOM  =      2023.81668923
  Solvation  Ediel_sol  =         0.00000000
  ---------------------------------------------------
  free energy    TOTEN  =       -46.01354976 eV

  energy without entropy =      -46.01354976  energy(sigma->0) =      -46.01354976


--------------------------------------------------------------------------------------------------------




--------------------------------------- Iteration      1(  28)  ---------------------------------------


    POTLOK:  cpu time   14.7249: real time   14.7523
    SETDIJ:  cpu time    0.0488: real time    0.0488
     EDDAV:  cpu time   17.1745: real time   17.2064
       DOS:  cpu time    0.0064: real time    0.0064
    --------------------------------------------
      LOOP:  cpu time   31.9546: real time   32.0139

 eigenvalue-minimisations  :    64
 total energy-change (2. order) :-0.8867846E-07  (-0.3064088E-08)
 number of electron      32.0000000 magnetization 
 augmentation part        2.6797568 magnetization 

 Free energy of the ion-electron system (eV)
  ---------------------------------------------------
  alpha Z        PSCENC =         0.09979497
  Ewald energy   TEWEN  =      1874.26936382
  -Hartree energ DENC   =     -3565.33424080
  -exchange      EXHF   =         0.00000000
  -V(xc)+E(xc)   XCENC  =       139.49560573
  PAW double counting   =      3112.41461527    -3121.34184329
  entropy T*S    EENTRO =        -0.00000000
  eigenvalues    EBANDS =      -509.43353477
  atomic energy  EATOM  =      2023.81668923
  Solvation  Ediel_sol  =         0.00000000
  ---------------------------------------------------
  free energy    TOTEN  =       -46.01354985 eV

  energy without entropy =      -46.01354985  energy(sigma->0) =      -46.01354985


--------------------------------------------------------------------------------------------------------




 average (electrostatic) potential at core
  the test charge radii are     0.6991  0.7215
  (the norm of the test charge is              1.0000)
       1 -63.8029       2 -63.5530       3 -82.8333       4 -82.8026       5 -82.5678
       6 -82.5681
 
 
 
 E-fermi :  -8.8822     XC(G=0):  -0.0399     alpha+bet : -0.0117


 k-point     1 :       0.0000    0.0000    0.0000
  band No.  band energies     occupation 
      1     -29.3478      2.00000
      2     -29.0994      2.00000
      3     -28.3412      2.00000
      4     -28.0933      2.00000
      5     -13.9119      2.00000
      6     -13.6392      2.00000
      7     -12.8137      2.00000
      8     -12.8096      2.00000
      9     -12.8040      2.00000
     10     -12.5713      2.00000
     11     -12.4875      2.00000
     12     -12.4871      2.00000
     13      -9.2070      2.00000
     14      -9.2028      2.00000
     15      -8.9595      2.00000
     16      -8.9415      2.00000
     17      -1.2187      0.00000
     18      -0.6389      0.00000
     19      -0.6256      0.00000
     20      -0.6057      0.00000
     21      -0.3848      0.00000
     22      -0.3624      0.00000
     23       0.0074      0.00000
     24       0.1077      0.00000
     25       0.1134      0.00000
     26       0.1231      0.00000
     27       0.1245      0.00000
     28       0.1309      0.00000
     29       0.1484      0.00000
     30       0.2005      0.00000
     31       0.2113      0.00000
     32       0.2446      0.00000


--------------------------------------------------------------------------------------------------------


 soft charge-density along one line, spin component            1
         0         1         2         3         4         5         6         7         8         9
 total charge-density along one line
 
 pseudopotential strength for first ion, spin component:            1
 10.562  14.053   0.000   0.000   0.000  -0.001  -0.000  -0.000
 14.053  18.699   0.000   0.000   0.000  -0.001  -0.000  -0.000
  0.000   0.000  -4.696   0.000   0.000   9.167  -0.000  -0.000
  0.000   0.000   0.000  -4.622  -0.000  -0.000   9.044   0.000
  0.000   0.000   0.000  -0.000  -4.622  -0.000   0.000   9.044
 -0.001  -0.001   9.167  -0.000  -0.000 -20.053   0.000   0.000
 -0.000  -0.000  -0.000   9.044   0.000   0.000 -19.848  -0.000
 -0.000  -0.000  -0.000   0.000   9.044   0.000  -0.000 -19.848
 total augmentation occupancy for first ion, spin component:            1
 11.130  -5.612   0.002  -0.000  -0.000   0.000  -0.000  -0.000
 -5.612   3.036  -0.002  -0.000  -0.000  -0.000   0.000   0.000
  0.002  -0.002   2.592  -0.000  -0.000   0.330   0.000  -0.000
 -0.000  -0.000  -0.000   1.238  -0.000   0.000   0.082   0.000
 -0.000  -0.000  -0.000  -0.000   1.238   0.000   0.000   0.082
  0.000  -0.000   0.330   0.000   0.000   0.051  -0.000  -0.000
 -0.000   0.000   0.000   0.082   0.000  -0.000   0.005   0.000
 -0.000   0.000  -0.000   0.000   0.082  -0.000   0.000   0.005


------------------------ aborting loop because EDIFF is reached ----------------------------------------



 DIPCOR: dipole corrections for dipol
 direction  1 min pos   355, direction  2 min pos   413, direction  3 min pos   437,
 dipolmoment          -0.000005      0.031248     -0.000047 electrons x Angstroem
 Tr[quadrupol]        15.779481

 energy correction for charged system         0.000000 eV
 dipol+quadrupol energy correction            0.000001 eV
 added-field ion interaction          0.000000 eV  (added to PSCEN)

 
  *************** adding dipol energy to TOTEN NOW **************** 
    CHARGE:  cpu time    6.3757: real time    6.3861
    FORLOC:  cpu time    0.4980: real time    0.4988
    FORNL :  cpu time    0.6552: real time    0.6564
    STRESS:  cpu time   15.7890: real time   15.8180
    FORCOR:  cpu time   12.7630: real time   12.7865
    FORHAR:  cpu time    3.5348: real time    3.5417
    MIXING:  cpu time    0.9418: real time    0.9441
    OFIELD:  cpu time    0.0000: real time    0.0000

  Hirshfeld charges:
            ion         q(e)     
   ------------------------------
      1     C           0.297
      2     C           0.288
      3     O          -0.144
      4     O          -0.143
      5     O          -0.149
      6     O          -0.149

  Hirshfeld-I charges:
            ion         q(e)        dq(e)    
   ------------------------------------------
      1     C           0.849     -0.415E-04
      2     C           0.849     -0.297E-04
      3     O          -0.433      0.217E-04
      4     O          -0.417      0.206E-04
      5     O          -0.423      0.144E-04
      6     O          -0.423      0.144E-04

   Hirshfeld-I converged in  15 cycles. Convergence criterion |dq|< 0.500E-04 e

  Atomic reference data used in the T-S method for vdW correction:
            C6at              R0at           ALPHAat      REFSTATE
            (au)              (au)            (au)                
   ---------------------------------------------------------------
   C          46.600          3.590         12.000         0
   O          15.600          3.194          5.400         0

  Tkatchenko/Scheffler method for vdW energy calculation
  ---------------------------------------------------------------------------------------------

  Parameters of vdW forcefield:
            C6ts              R0ts           ALPHAts        RELVOL
            (au)              (au)            (au)                
   ---------------------------------------------------------------
   C           8.969          2.728          5.265          0.43871677
   C           9.042          2.732          5.286          0.44048229
   O          19.539          3.316          6.043          1.11916087
   O          18.380          3.282          5.861          1.08544243
   O          18.769          3.294          5.923          1.09688155
   O          18.767          3.294          5.923          1.09681631

  vdW correction parametrized for the method pbe       

  IVDW =  21
  VDW_RADIUS =    50.000 A
  VDW_IDAMPF =  0
  VDW_S6 =     1.000
  VDW_SR =     0.950
  VDW_D =    20.000
  LVDW_ONECELL = F F F
  LVDW_SAMETYPE T T
  LVDW_EWALD = F

  Number of pair interactions contributing to vdW energy:     321
  Edisp (eV):   -0.01780
    FORVDW:  cpu time  106.5250: real time  106.5923

  FORCE on cell =-STRESS in cart. coord.  units (eV):
  Direction    XX          YY          ZZ          XY          YZ          ZX
  --------------------------------------------------------------------------------------
  Alpha Z     0.09979     0.09979     0.09979
  Ewald    -201.17449  1413.78545   661.65920    -0.21409    -4.29767   -11.20799
  Hartree   663.36378  1798.53754  1103.43290    -0.23341    -1.25402    -5.70256
  E(xc)    -150.35290  -148.23383  -148.24405     0.00020    -0.01591    -0.02746
  Local    -929.32369 -3606.37285 -2159.19066     0.45483     4.99577    15.95968
  n-local   -97.18134  -103.28757  -103.29354    -0.00059     0.04586     0.07957
  augment    26.57330    23.81360    23.81705    -0.00028     0.02106     0.03585
  Kinetic   687.97396   623.01665   623.14863    -0.00653     0.49483     0.84398
  Fock        0.00000     0.00000     0.00000     0.00000     0.00000     0.00000
  vdW        -0.00000    -0.03475     0.00021     0.00001     0.00027    -0.00000
  -------------------------------------------------------------------------------------
  Total      -0.02157     1.32403     1.42953     0.00016    -0.00982    -0.01893
  in kB      -0.00081     0.04948     0.05342     0.00001    -0.00037    -0.00071
  external pressure =        0.03 kB  Pullay stress =        0.00 kB


 VOLUME and BASIS-vectors are now :
 -----------------------------------------------------------------------------
  energy-cutoff  :     1000.00
  volume of cell :    42875.00
      direct lattice vectors                 reciprocal lattice vectors
    35.000000000  0.000000000  0.000000000     0.028571429  0.000000000  0.000000000
     0.000000000 35.000000000  0.000000000     0.000000000  0.028571429  0.000000000
     0.000000000  0.000000000 35.000000000     0.000000000  0.000000000  0.028571429

  length of vectors
    35.000000000 35.000000000 35.000000000     0.028571429  0.028571429  0.028571429


 FORCES acting on ions
    electron-ion (+dipol)            ewald-force                    non-local-force                 convergence-correction
 -----------------------------------------------------------------------------------------------
   -.147E-01 0.423E+02 0.107E+00   0.147E-01 -.424E+02 -.107E+00   0.996E-05 0.648E-01 0.225E-03   -.641E-07 -.809E-06 -.688E-07
   0.210E-01 -.538E+02 -.105E+00   -.210E-01 0.537E+02 0.106E+00   -.748E-05 0.223E-01 -.331E-04   -.202E-07 0.297E-06 -.689E-06
   -.520E-01 -.171E+03 0.398E+00   0.521E-01 0.236E+03 -.395E+00   -.145E-03 -.639E+02 -.354E-02   -.120E-06 0.341E-05 -.924E-07
   -.111E-01 0.322E+03 0.783E-01   0.111E-01 -.387E+03 -.781E-01   0.606E-05 0.645E+02 -.172E-03   -.151E-06 0.220E-05 -.383E-08
   0.398E+01 -.684E+02 -.303E+03   -.482E+01 0.677E+02 0.368E+03   0.836E+00 0.680E+00 -.642E+02   -.162E-06 0.547E-06 0.143E-05
   -.392E+01 -.723E+02 0.303E+03   0.476E+01 0.726E+02 -.368E+03   -.836E+00 -.296E+00 0.642E+02   -.113E-06 0.639E-06 -.312E-05
 -----------------------------------------------------------------------------------------------
   0.437E-03 -.103E+01 0.596E-03   -.888E-15 -.142E-13 -.568E-13   -.498E-03 0.103E+01 -.938E-03   -.630E-06 0.628E-05 -.255E-05
 
 
 POSITION                                       TOTAL-FORCE (eV/Angst)
 -----------------------------------------------------------------------------------
      0.00000      0.05699      0.00000         0.000005     -0.081568      0.000083
     34.99851      4.52718      0.00754         0.000038     -0.060389      0.000751
      0.00000      1.22721      0.00000         0.000009      0.665195     -0.000418
      0.00000     33.88677      0.00000         0.000013     -0.563338      0.000111
     34.98327      4.51833      1.17763        -0.008226      0.015870      0.620133
      0.01374      4.53603     33.83746         0.008161      0.024230     -0.620660
 -----------------------------------------------------------------------------------
    total drift:                               -0.000062     -0.000522     -0.000345


--------------------------------------------------------------------------------------------------------



  FREE ENERGIE OF THE ION-ELECTRON SYSTEM (eV)
  ---------------------------------------------------
  free  energy   TOTEN  =       -46.03135344 eV

  energy  without entropy=      -46.03135344  energy(sigma->0) =      -46.03135344
 


--------------------------------------------------------------------------------------------------------


    POTLOK:  cpu time   15.4429: real time   15.4708


--------------------------------------------------------------------------------------------------------


 writing wavefunctions
     LOOP+:  cpu time 1732.2959: real time 1736.9381
    4ORBIT:  cpu time    0.0000: real time    0.0000

 total amount of memory used by VASP MPI-rank0  4007897. kBytes
=======================================================================

   base      :      30000. kBytes
   nonl-proj :     344787. kBytes
   fftplans  :     676185. kBytes
   grid      :    2932288. kBytes
   one-center:          9. kBytes
   wavefun   :      24628. kBytes
 
  
  
 General timing and accounting informations for this job:
 ========================================================
  
                  Total CPU time used (sec):     3154.079
                            User time (sec):     2962.183
                          System time (sec):      191.896
                         Elapsed time (sec):     3176.737
  
                   Maximum memory used (kb):     5424852.
                   Average memory used (kb):           0.
  
                          Minor page faults:     78132924
                          Major page faults:          972
                 Voluntary context switches:        15145
