 vasp.5.4.1 24Jun15 (build Jan 02 2020 16:21:29) gamma-only                     
  
 executed on           IFC15_impi date 2020.08.26  20:18:14
 running on   32 total cores
 distrk:  each k-point on   32 cores,    1 groups
 distr:  one band on NCORES_PER_BAND=   8 cores,    4 groups


--------------------------------------------------------------------------------------------------------


 INCAR:
 POTCAR:    PAW_PBE N_s 07Sep2000                 
 POTCAR:    PAW_PBE C_s 06Sep2000                 
 POTCAR:    PAW_PBE H_s 15May2010                 
 POTCAR:    PAW_PBE N_s 07Sep2000                 
   VRHFIN =N: s2p3                                                              
   LEXCH  = PE                                                                  
   EATOM  =   264.5486 eV,   19.4438 Ry                                         
                                                                                
   TITEL  = PAW_PBE N_s 07Sep2000                                               
   LULTRA =        F    use ultrasoft PP ?                                      
   IUNSCR =        0    unscreen: 0-lin 1-nonlin 2-no                           
   RPACOR =    0.000    partial core radius                                     
   POMASS =   14.001; ZVAL   =    5.000    mass and valenz                      
   RCORE  =    1.850    outmost cutoff radius                                   
   RWIGS  =    1.850; RWIGS  =    0.979    wigner-seitz radius (au A)           
   ENMAX  =  279.692; ENMIN  =  209.769 eV                                      
   RCLOC  =    0.803    cutoff for local pot                                    
   LCOR   =        T    correct aug charges                                     
   LPAW   =        T    paw PP                                                  
   EAUG   =  384.743                                                            
   DEXC   =    0.000                                                            
   RMAX   =    1.893    core radius for proj-oper                               
   RAUG   =    1.300    factor for augmentation sphere                          
   RDEP   =    1.933    radius for radial grids                                 
   RDEPT  =    1.632    core radius for aug-charge                              
                                                                                
   Atomic configuration                                                         
    4 entries                                                                   
     n  l   j            E        occ.                                          
     1  0  0.50      -384.7179   2.0000                                         
     2  0  0.50       -18.5828   2.0000                                         
     2  1  0.50        -7.0898   3.0000                                         
     3  2  1.50        -1.3606   0.0000                                         
   Description                                                                  
     l       E           TYP  RCUT    TYP  RCUT                                 
     0    -18.5828119     23  1.500                                             
     0    -19.9433945     23  1.500                                             
     1     -7.0897853     23  1.850                                             
     1     -4.8150613     23  1.850                                             
  local pseudopotential read in
  atomic valenz-charges read in
  non local Contribution for L=           0  read in
    real space projection operators read in
  non local Contribution for L=           0  read in
    real space projection operators read in
  non local Contribution for L=           1  read in
    real space projection operators read in
  non local Contribution for L=           1  read in
    real space projection operators read in
    PAW grid and wavefunctions read in
 
   number of l-projection  operators is LMAX  =           4
   number of lm-projection operators is LMMAX =           8
 
 POTCAR:    PAW_PBE C_s 06Sep2000                 
   VRHFIN =C: s2p2                                                              
   LEXCH  = PE                                                                  
   EATOM  =   147.1560 eV,   10.8157 Ry                                         
                                                                                
   TITEL  = PAW_PBE C_s 06Sep2000                                               
   LULTRA =        F    use ultrasoft PP ?                                      
   IUNSCR =        0    unscreen: 0-lin 1-nonlin 2-no                           
   RPACOR =    0.000    partial core radius                                     
   POMASS =   12.011; ZVAL   =    4.000    mass and valenz                      
   RCORE  =    1.850    outmost cutoff radius                                   
   RWIGS  =    1.890; RWIGS  =    1.000    wigner-seitz radius (au A)           
   ENMAX  =  273.911; ENMIN  =  205.433 eV                                      
   RCLOC  =    0.804    cutoff for local pot                                    
   LCOR   =        T    correct aug charges                                     
   LPAW   =        T    paw PP                                                  
   EAUG   =  439.243                                                            
   DEXC   =    0.000                                                            
   RMAX   =    1.897    core radius for proj-oper                               
   RAUG   =    1.300    factor for augmentation sphere                          
   RDEP   =    1.940    radius for radial grids                                 
   RDEPT  =    1.573    core radius for aug-charge                              
                                                                                
   Atomic configuration                                                         
    4 entries                                                                   
     n  l   j            E        occ.                                          
     1  0  0.50      -273.3789   2.0000                                         
     2  0  0.50       -13.7508   2.0000                                         
     2  1  0.50        -5.2854   2.0000                                         
     3  2  1.50        -1.3606   0.0000                                         
   Description                                                                  
     l       E           TYP  RCUT    TYP  RCUT                                 
     0    -13.7508457     23  1.500                                             
     0    -11.0934578     23  1.500                                             
     1     -5.2854381     23  1.850                                             
     1     -1.3099858     23  1.850                                             
  local pseudopotential read in
  atomic valenz-charges read in
  non local Contribution for L=           0  read in
    real space projection operators read in
  non local Contribution for L=           0  read in
    real space projection operators read in
  non local Contribution for L=           1  read in
    real space projection operators read in
  non local Contribution for L=           1  read in
    real space projection operators read in
    PAW grid and wavefunctions read in
 
   number of l-projection  operators is LMAX  =           4
   number of lm-projection operators is LMMAX =           8
 
 POTCAR:    PAW_PBE H_s 15May2010                 
   VRHFIN =H: ultrasoft test                                                    
   LEXCH  = PE                                                                  
   EATOM  =    12.4884 eV,    0.9179 Ry                                         
                                                                                
   TITEL  = PAW_PBE H_s 15May2010                                               
   LULTRA =        F    use ultrasoft PP ?                                      
   IUNSCR =        0    unscreen: 0-lin 1-nonlin 2-no                           
   RPACOR =    0.000    partial core radius                                     
   POMASS =    1.000; ZVAL   =    1.000    mass and valenz                      
   RCORE  =    1.300    outmost cutoff radius                                   
   RWIGS  =    0.700; RWIGS  =    0.370    wigner-seitz radius (au A)           
   ENMAX  =  200.000; ENMIN  =  150.000 eV                                      
   RCLOC  =    0.701    cutoff for local pot                                    
   LCOR   =        T    correct aug charges                                     
   LPAW   =        T    paw PP                                                  
   EAUG   =  300.000                                                            
   RMAX   =    1.330    core radius for proj-oper                               
   RAUG   =    1.200    factor for augmentation sphere                          
   RDEP   =    1.337    radius for radial grids                                 
   RDEPT  =    1.114    core radius for aug-charge                              
                                                                                
   Atomic configuration                                                         
    2 entries                                                                   
     n  l   j            E        occ.                                          
     1  0  0.50        -6.4927   1.0000                                         
     2  1  0.50        -3.4015   0.0000                                         
   Description                                                                  
     l       E           TYP  RCUT    TYP  RCUT                                 
     0     -6.4927494     23  1.300                                             
     0      6.8029130     23  1.300                                             
     1     -4.0817478     23  1.300                                             
  local pseudopotential read in
  atomic valenz-charges read in
  non local Contribution for L=           0  read in
    real space projection operators read in
  non local Contribution for L=           0  read in
    real space projection operators read in
  non local Contribution for L=           1  read in
    real space projection operators read in
    PAW grid and wavefunctions read in
 
   number of l-projection  operators is LMAX  =           3
   number of lm-projection operators is LMMAX =           5
 
  PAW_PBE N_s 07Sep2000                 :
 energy of atom  1       EATOM= -264.5486
 kinetic energy error for atom=    0.0003 (will be added to EATOM!!)
  PAW_PBE C_s 06Sep2000                 :
 energy of atom  2       EATOM= -147.1560
 kinetic energy error for atom=    0.0002 (will be added to EATOM!!)
  PAW_PBE H_s 15May2010                 :
 energy of atom  3       EATOM=  -12.4884
 kinetic energy error for atom=    0.0000 (will be added to EATOM!!)
 
 
 POSCAR: N C H                                   
  positions in cartesian coordinates
  No initial velocities read in
 exchange correlation table for  LEXCH =        8
   RHO(1)=    0.500       N(1)  =     2000
   RHO(2)=  100.500       N(2)  =     4000
 


--------------------------------------------------------------------------------------------------------


 ion  position               nearest neighbor table
   1  0.974  0.999  0.999-   4 1.01   3 1.01   2 1.46
   2  0.966  0.022  0.033-   5 1.09   7 1.09   6 1.10   1 1.46
   3  0.003  0.993  0.998-   1 1.01
   4  0.961  0.973  0.001-   1 1.01
   5  0.936  0.028  0.034-   2 1.09
   6  0.975  0.009  0.060-   2 1.10
   7  0.981  0.049  0.030-   2 1.09
 
  LATTYP: Found a simple cubic cell.
 ALAT       =    35.0000000000
  
  Lattice vectors:
  
 A1 = (  35.0000000000,   0.0000000000,   0.0000000000)
 A2 = (   0.0000000000,  35.0000000000,   0.0000000000)
 A3 = (   0.0000000000,   0.0000000000,  35.0000000000)


Analysis of symmetry for initial positions (statically):
=====================================================================
 Subroutine PRICEL returns:
 Original cell was already a primitive cell.
 

 Routine SETGRP: Setting up the symmetry group for a 
 simple cubic supercell.


 Subroutine GETGRP returns: Found  1 space group operations
 (whereof  1 operations were pure point group operations)
 out of a pool of 48 trial point group operations.


The static configuration has the point symmetry C_1 .


Analysis of symmetry for dynamics (positions and initial velocities):
=====================================================================
 Subroutine PRICEL returns:
 Original cell was already a primitive cell.
 

 Routine SETGRP: Setting up the symmetry group for a 
 simple cubic supercell.


 Subroutine GETGRP returns: Found  1 space group operations
 (whereof  1 operations were pure point group operations)
 out of a pool of 48 trial point group operations.


The dynamic configuration has the point symmetry C_1 .
 
 
 KPOINTS: automatic mesh                          

Automatic generation of k-mesh.
Space group operators:
 irot       det(A)        alpha          n_x          n_y          n_z        tau_x        tau_y        tau_z
    1     1.000000     0.000000     1.000000     0.000000     0.000000     0.000000     0.000000     0.000000
 
 Subroutine IBZKPT returns following result:
 ===========================================
 
 Found      1 irreducible k-points:
 
 Following reciprocal coordinates:
            Coordinates               Weight
  0.000000  0.000000  0.000000      1.000000
 
 Following cartesian coordinates:
            Coordinates               Weight
  0.000000  0.000000  0.000000      1.000000
 
 
 Subroutine IBZKPT_HF returns following result:
 ==============================================
 
 Found      1 k-points in 1st BZ
 the following      1 k-points will be used (e.g. in the exchange kernel)
 Following reciprocal coordinates:   # in IRBZ
  0.000000  0.000000  0.000000    1.00000000   1 t-inv F


--------------------------------------------------------------------------------------------------------




 Dimension of arrays:
   k-points           NKPTS =      1   k-points in BZ     NKDIM =      1   number of bands    NBANDS=     12
   number of dos      NEDOS =    301   number of ions     NIONS =      7
   non local maximal  LDIM  =      4   non local SUM 2l+1 LMDIM =      8
   total plane-waves  NPLWV = ******
   max r-space proj   IRMAX =      1   max aug-charges    IRDMAX=  32454
   dimension x,y,z NGX =   378 NGY =  378 NGZ =  378
   dimension x,y,z NGXF=   756 NGYF=  756 NGZF=  756
   support grid    NGXF=   756 NGYF=  756 NGZF=  756
   ions per type =               1   1   5
 NGX,Y,Z   is equivalent  to a cutoff of  17.95, 17.95, 17.95 a.u.
 NGXF,Y,Z  is equivalent  to a cutoff of  35.91, 35.91, 35.91 a.u.


 I would recommend the setting:
   dimension x,y,z NGX =   361 NGY =  361 NGZ =  361
 SYSTEM =  C                                       
 POSCAR =  N C H                                   

 Startparameter for this run:
   NWRITE =      2    write-flag & timer
   PREC   = accura    normal or accurate (medium, high low for compatibility)
   ISTART =      1    job   : 0-new  1-cont  2-samecut
   ICHARG =      0    charge: 1-file 2-atom 10-const
   ISPIN  =      1    spin polarized calculation?
   LNONCOLLINEAR =      F non collinear calculations
   LSORBIT =      F    spin-orbit coupling
   INIWAV =      1    electr: 0-lowe 1-rand  2-diag
   LASPH  =      T    aspherical Exc in radial PAW
   METAGGA=      F    non-selfconsistent MetaGGA calc.

 Electronic Relaxation 1
   ENCUT  = 1000.0 eV  73.50 Ry    8.57 a.u.  90.25 90.25 90.25*2*pi/ulx,y,z
   ENINI  = 1000.0     initial cutoff
   ENAUG  =  439.2 eV  augmentation charge cutoff
   NELM   =     60;   NELMIN=  2; NELMDL=  0     # of ELM steps 
   EDIFF  = 0.1E-06   stopping-criterion for ELM
   LREAL  =      F    real-space projection
   NLSPLINE    = F    spline interpolate recip. space projectors
   LCOMPAT=      F    compatible to vasp.4.4
   GGA_COMPAT  = T    GGA compatible to vasp.4.4-vasp.4.6
   LMAXPAW     = -100 max onsite density
   LMAXMIX     =    2 max onsite mixed and CHGCAR
   VOSKOWN=      0    Vosko Wilk Nusair interpolation
   ROPT   =    0.00000   0.00000   0.00000
 Ionic relaxation
   EDIFFG = 0.1E-05   stopping-criterion for IOM
   NSW    =      0    number of steps for IOM
   NBLOCK =      1;   KBLOCK =      1    inner block; outer block 
   IBRION =     -1    ionic relax: 0-MD 1-quasi-New 2-CG
   NFREE  =      0    steps in history (QN), initial steepest desc. (CG)
   ISIF   =      0    stress and relaxation
   IWAVPR =     10    prediction:  0-non 1-charg 2-wave 3-comb
   ISYM   =      3    0-nonsym 1-usesym 2-fastsym
   LCORR  =      T    Harris-Foulkes like correction to forces

   POTIM  = 0.5000    time-step for ionic-motion
   TEIN   =    0.0    initial temperature
   TEBEG  =    0.0;   TEEND  =   0.0 temperature during run
   SMASS  =  -3.00    Nose mass-parameter (am)
   estimated Nose-frequenzy (Omega)   =  0.10E-29 period in steps =****** mass=  -0.280E-25a.u.
   SCALEE = 1.0000    scale energy and forces
   NPACO  =    256;   APACO  = 16.0  distance and # of slots for P.C.
   PSTRESS=    0.0 pullay stress

  Mass of Ions in am
   POMASS =  14.00 12.01  1.00
  Ionic Valenz
   ZVAL   =   5.00  4.00  1.00
  Atomic Wigner-Seitz radii
   RWIGS  =  -1.00 -1.00 -1.00
  virtual crystal weights 
   VCA    =   1.00  1.00  1.00
   NELECT =      14.0000    total number of electrons
   NUPDOWN=      -1.0000    fix difference up-down

 DOS related values:
   EMIN   =  10.00;   EMAX   =-10.00  energy-range for DOS
   EFERMI =   0.00
   ISMEAR =     0;   SIGMA  =   0.01  broadening in eV -4-tet -1-fermi 0-gaus

 Electronic relaxation 2 (details)
   IALGO  =     58    algorithm
   LDIAG  =      T    sub-space diagonalisation (order eigenvalues)
   LSUBROT=      F    optimize rotation matrix (better conditioning)
   TURBO    =      0    0=normal 1=particle mesh
   IRESTART =      0    0=no restart 2=restart with 2 vectors
   NREBOOT  =      0    no. of reboots
   NMIN     =      0    reboot dimension
   EREF     =   0.00    reference energy to select bands
   IMIX   =      4    mixing-type and parameters
     AMIX     =   0.40;   BMIX     =  1.00
     AMIX_MAG =   1.60;   BMIX_MAG =  1.00
     AMIN     =   0.10
     WC   =   100.;   INIMIX=   1;  MIXPRE=   1;  MAXMIX= -45

 Intra band minimization:
   WEIMIN = 0.0000     energy-eigenvalue tresh-hold
   EBREAK =  0.21E-08  absolut break condition
   DEPER  =   0.30     relativ break condition  

   TIME   =   0.40     timestep for ELM

  volume/ion in A,a.u.               =    6125.00     41333.54
  Fermi-wavevector in a.u.,A,eV,Ry     =   0.112733  0.213034  0.172911  0.012709
  Thomas-Fermi vector in A             =   0.715943
 
 Write flags
   LWAVE  =      F    write WAVECAR
   LCHARG =      T    write CHGCAR
   LVTOT  =      F    write LOCPOT, total local potential
   LVHAR  =      F    write LOCPOT, Hartree potential only
   LELF   =      F    write electronic localiz. function (ELF)
   LORBIT =      0    0 simple, 1 ext, 2 COOP (PROOUT)


 Dipole corrections
   LMONO  =      F    monopole corrections only (constant potential shift)
   LDIPOL =      F    correct potential (dipole corrections)
   IDIPOL =      4    1-x, 2-y, 3-z, 4-all directions 
   EPSILON=  1.0000000 bulk dielectric constant

 Exchange correlation treatment:
   GGA     =    --    GGA type
   LEXCH   =     8    internal setting for exchange type
   VOSKOWN=      0    Vosko Wilk Nusair interpolation
   EXXOEP  =     0    0=HF, 1=EXX-LHF (local Hartree Fock) 2=EXX OEP
   LHFCALC =     T    Hartree Fock is set to
   LSYMGRAD=     F    symmetrize gradient (conserves proper symmetry)
   PRECFOCK=normal    Normal, Fast or Accurate (Low or Medium for compatibility)
   LRHFCALC=     F    long range Hartree Fock
   LRSCOR  =     F    long range correlation only (use DFT for short range part)
   LTHOMAS =     F    Thomas Fermi screening in HF
   LMODELHF=     F    short range full HF, long range fraction AEXX
   ENCUT4O =  -1.0   cutoff for four orbital integrals eV
   LMAXFOCK=     4    L truncation for augmentation on plane wave grid
   LMAXFOCKAE=  -1    L truncation for all-electron charge restoration on plane wave grid
   NMAXFOCKAE=   1    number of basis functions for all-electron charge restoration
   LFOCKAEDFT=     F  apply the AE augmentation even for DFT
   NKREDX  =     1    reduce k-point grid by
   NKREDY  =     1    reduce k-point grid by
   NKREDZ  =     1    reduce k-point grid by
   SHIFTRED=     F    shift reduced grid of Gamma
   HFKIDENT=     F    idential grid for each k-point
   ODDONLY =     F    use only odd q-grid points
   EVENONLY=     F    use only even q-grid points
   HFALPHA =   -1.0000 decay constant for conv. correction
   MCALPHA =    0.0000 extent of test-charge in conv. correction in multipole expansion
   AEXX    =    1.0000 exact exchange contribution
   HFSCREEN=    0.0000 screening length (either q_TF or 0.3 A-1)
   HFSCREENC=   0.0000 screening length for correlation (either q_TF or 0.3 A-1)
   HFRCUT  =    0.0000 spherical cutoff for potential kernel
   ALDAX   =    0.0000 LDA exchange part
   AGGAX   =    0.0000 GGA exchange part
   ALDAC   =    0.0000 LDA correlation
   AGGAC   =    0.0000 GGA correlation
   NBANDSGWLOW=     1    first orbital included in HF term
   ENCUTFOCK=  -1.0 apply spherical cutoff to Coloumb kernel
 Linear response parameters
   LEPSILON=     F    determine dielectric tensor
   LRPA    =     F    only Hartree local field effects (RPA)
   LNABLA  =     F    use nabla operator in PAW spheres
   LVEL    =     F    velocity operator in full k-point grid
   LINTERFAST=   F  fast interpolation
   KINTER  =     0    interpolate to denser k-point grid
   CSHIFT  =0.1000    complex shift for real part using Kramers Kronig
   OMEGAMAX=  -1.0    maximum frequency
   DEG_THRESHOLD= 0.2000000E-02 threshold for treating states as degnerate
   RTIME   =    0.100 relaxation time in fs

 Orbital magnetization related:
   ORBITALMAG=     F  switch on orbital magnetization
   LCHIMAG   =     F  perturbation theory with respect to B field
   DQ        =  0.001000  dq finite difference perturbation B field



--------------------------------------------------------------------------------------------------------


 Static calculation
 charge density and potential will be updated during run
 non-spin polarized calculation
 Conjugate gradient for all bands (Freysoldt, et al. PRB 79, 241103 (2009))
 preconditioned conjugated gradient                                        
 perform sub-space diagonalisation
    before iterative eigenvector-optimisation
 modified Broyden-mixing scheme, WC =      100.0
 initial mixing is a Kerker type mixing with AMIX =  0.4000 and BMIX =      1.0000
 Hartree-type preconditioning will be used
 using additional bands            5
 reciprocal scheme for non local part
 no Harris-corrections to forces 
 use gradient corrections 
 use of overlap-Matrix (Vanderbilt PP)
 Gauss-broadening in eV      SIGMA  =   0.01


--------------------------------------------------------------------------------------------------------


  energy-cutoff  :     1000.00
  volume of cell :    42875.00
      direct lattice vectors                 reciprocal lattice vectors
    35.000000000  0.000000000  0.000000000     0.028571429  0.000000000  0.000000000
     0.000000000 35.000000000  0.000000000     0.000000000  0.028571429  0.000000000
     0.000000000  0.000000000 35.000000000     0.000000000  0.000000000  0.028571429

  length of vectors
    35.000000000 35.000000000 35.000000000     0.028571429  0.028571429  0.028571429


 
 old parameters found on file WAVECAR:
  energy-cutoff  :     1000.00
  volume of cell :    42875.00
      direct lattice vectors                 reciprocal lattice vectors
    35.000000000  0.000000000  0.000000000     0.028571429  0.000000000  0.000000000
     0.000000000 35.000000000  0.000000000     0.000000000  0.028571429  0.000000000
     0.000000000  0.000000000 35.000000000     0.000000000  0.000000000  0.028571429

  length of vectors

 
 k-points in units of 2pi/SCALE and weight: automatic mesh                          
   0.00000000  0.00000000  0.00000000       1.000
 
 k-points in reciprocal lattice and weights: automatic mesh                          
   0.00000000  0.00000000  0.00000000       1.000
 
 position of ions in fractional coordinates (direct lattice) 
   0.97447282  0.99874731  0.99877150
   0.96640621  0.02165451  0.03272106
   0.00276995  0.99268402  0.99796943
   0.96090175  0.97333170  0.00096679
   0.93595353  0.02777760  0.03414356
   0.97483458  0.00869276  0.05992026
   0.98105698  0.04898084  0.03030883
 
 position of ions in cartesian coordinates  (Angst):
  34.10654878 34.95615568 34.95700255
  33.82421752  0.75790769  1.14523719
   0.09694826 34.74394055 34.92893007
  33.63156121 34.06660935  0.03383773
  32.75837340  0.97221601  1.19502464
  34.11921045  0.30424674  2.09720910
  34.33699428  1.71432940  1.06080916
 


--------------------------------------------------------------------------------------------------------


 use parallel FFT for wavefunctions z direction half grid
 k-point  1 :   0.0000 0.0000 0.0000  plane waves: 1539209

 maximum and minimum number of plane-waves per node :    192406   192397

 maximum number of plane-waves:   1539209
 maximum index in each direction: 
   IXMAX=   90   IYMAX=   90   IZMAX=   90
   IXMIN=  -90   IYMIN=  -90   IZMIN=    0

 NGX is ok and might be reduce to 362
 NGY is ok and might be reduce to 362
 NGZ is ok and might be reduce to 362

 parallel 3D FFT for wavefunctions:
    minimum data exchange during FFTs selected (reduces bandwidth)
 parallel 3D FFT for charge:
    minimum data exchange during FFTs selected (reduces bandwidth)


 FFT grid for exact exchange (Hartree Fock) 
  NGX =280; NGY =280; NGZ =280

 use parallel FFT for wavefunctions z direction half grid
 
 Radii for the augmentation spheres in the non-local exchange
 for species   1 augmentation radius   1.131 (default was   0.905)
       energy cutoff for augmentation   4000.0
 for species   2 augmentation radius   1.059 (default was   0.847)
       energy cutoff for augmentation   4000.0
 for species   3 augmentation radius   0.782 (default was   0.626)
       energy cutoff for augmentation   4000.0

 real space projection operators:
  total allocation   :        760.01 KBytes
  max/ min on nodes  :         97.38         90.21

 Maximum index for augmentation-charges in exchange          365
  SETUP_FOCK is finished

 total amount of memory used by VASP on root node  1963860. kBytes
========================================================================

   base      :      30000. kBytes
   nonl-proj :      58492. kBytes
   fftplans  :     693297. kBytes
   grid      :    1154248. kBytes
   one-center:          1. kBytes
   HF        :          4. kBytes
   nonlr-proj:        113. kBytes
   wavefun   :      27705. kBytes
 
     INWAV:  cpu time    1.1003: real time    1.1397
 Broyden mixing: mesh for mixing (old mesh)
   NGX =181   NGY =181   NGZ =181
  (NGX  =756   NGY  =756   NGZ  =756)
  gives a total of ****** points

 charge density for first step will be calculated from the start-wavefunctions


--------------------------------------------------------------------------------------------------------


 Maximum index for augmentation-charges         1233 (set IRDMAX)


--------------------------------------------------------------------------------------------------------


 initial charge from wavefunction
 FEWALD executed in parallel
    FEWALD:  cpu time    0.0022: real time    0.0022


----------------------------------------- Iteration    1(   1)  ---------------------------------------


    POTLOK:  cpu time    8.2532: real time    8.2753
    SETDIJ:  cpu time    0.0542: real time    0.0543
    TRIAL :  cpu time    6.7668: real time    6.7986
    CORREC:  cpu time   15.0067: real time   15.0595
    CHARGE:  cpu time    0.9513: real time    0.9549
    --------------------------------------------
      LOOP:  cpu time   31.0774: real time   31.2010

 eigenvalue-minimisations  :     0
 total energy-change (2. order) :-0.6385005E+02  (-0.2804943E+00)
 number of electron      14.0000000 magnetization 
 augmentation part        0.8951996 magnetization 

 Free energy of the ion-electron system (eV)
  ---------------------------------------------------
  alpha Z        PSCENC =         0.01272961
  Ewald energy   TEWEN  =       609.39947796
  -Hartree energ DENC   =      -995.08584300
  -exchange      EXHF   =       150.90935914
  -V(xc)+E(xc)   XCENC  =         0.00000000
  PAW double counting   =      3577.05965252    -3576.84470370
  entropy T*S    EENTRO =        -0.00000000
  eigenvalues    EBANDS =      -259.46424575
  atomic energy  EATOM  =       430.16351941
  ---------------------------------------------------
  free energy    TOTEN  =       -63.85005381 eV

  energy without entropy =      -63.85005381  energy(sigma->0) =      -63.85005381
  exchange ACFDT corr.  =        -0.00000000  see jH, gK, PRB 81, 115126


--------------------------------------------------------------------------------------------------------




----------------------------------------- Iteration    1(   2)  ---------------------------------------


    POTLOK:  cpu time    8.7940: real time    8.8154
    SETDIJ:  cpu time    0.1137: real time    0.1139
    TRIAL :  cpu time    6.8013: real time    6.8338
    CORREC:  cpu time   15.5612: real time   15.6148
    CHARGE:  cpu time    0.9448: real time    0.9483
    --------------------------------------------
      LOOP:  cpu time   32.2331: real time   32.3468

 eigenvalue-minimisations  :     0
 total energy-change (2. order) :-0.2802654E+00  (-0.9871972E-01)
 number of electron      14.0000000 magnetization 
 augmentation part        0.9002068 magnetization 

 Free energy of the ion-electron system (eV)
  ---------------------------------------------------
  alpha Z        PSCENC =         0.01272961
  Ewald energy   TEWEN  =       609.39947796
  -Hartree energ DENC   =      -991.33987374
  -exchange      EXHF   =       150.99696529
  -V(xc)+E(xc)   XCENC  =         0.00000000
  PAW double counting   =      5157.96437306    -5157.74359276
  entropy T*S    EENTRO =        -0.00000000
  eigenvalues    EBANDS =      -263.58391801
  atomic energy  EATOM  =       430.16351941
  ---------------------------------------------------
  free energy    TOTEN  =       -64.13031919 eV

  energy without entropy =      -64.13031919  energy(sigma->0) =      -64.13031919
  exchange ACFDT corr.  =         0.00000000  see jH, gK, PRB 81, 115126


--------------------------------------------------------------------------------------------------------




----------------------------------------- Iteration    1(   3)  ---------------------------------------


    POTLOK:  cpu time    8.8034: real time    8.8249
    SETDIJ:  cpu time    0.1138: real time    0.1141
    TRIAL :  cpu time    6.7430: real time    6.7756
    CORREC:  cpu time   15.5665: real time   15.6203
    CHARGE:  cpu time    0.9472: real time    0.9509
    --------------------------------------------
      LOOP:  cpu time   32.1947: real time   32.3091

 eigenvalue-minimisations  :     0
 total energy-change (2. order) :-0.9883440E-01  (-0.2558204E-01)
 number of electron      14.0000000 magnetization 
 augmentation part        0.9093492 magnetization 

 Free energy of the ion-electron system (eV)
  ---------------------------------------------------
  alpha Z        PSCENC =         0.01272961
  Ewald energy   TEWEN  =       609.39947796
  -Hartree energ DENC   =      -995.49365133
  -exchange      EXHF   =       151.86732435
  -V(xc)+E(xc)   XCENC  =         0.00000000
  PAW double counting   =      5264.71475082    -5264.46175907
  entropy T*S    EENTRO =        -0.00000000
  eigenvalues    EBANDS =      -260.43154534
  atomic energy  EATOM  =       430.16351941
  ---------------------------------------------------
  free energy    TOTEN  =       -64.22915359 eV

  energy without entropy =      -64.22915359  energy(sigma->0) =      -64.22915359
  exchange ACFDT corr.  =        -0.00000000  see jH, gK, PRB 81, 115126


--------------------------------------------------------------------------------------------------------




----------------------------------------- Iteration    1(   4)  ---------------------------------------


    POTLOK:  cpu time    8.7860: real time    8.8074
    SETDIJ:  cpu time    0.1135: real time    0.1137
    TRIAL :  cpu time    6.7901: real time    6.8226
    CORREC:  cpu time   15.5846: real time   15.6383
    CHARGE:  cpu time    0.9503: real time    0.9539
    --------------------------------------------
      LOOP:  cpu time   32.2435: real time   32.3572

 eigenvalue-minimisations  :     0
 total energy-change (2. order) :-0.2559368E-01  (-0.7877862E-02)
 number of electron      14.0000000 magnetization 
 augmentation part        0.9104999 magnetization 

 Free energy of the ion-electron system (eV)
  ---------------------------------------------------
  alpha Z        PSCENC =         0.01272961
  Ewald energy   TEWEN  =       609.39947796
  -Hartree energ DENC   =      -995.00562640
  -exchange      EXHF   =       151.85666673
  -V(xc)+E(xc)   XCENC  =         0.00000000
  PAW double counting   =      5142.09021354    -5141.85408055
  entropy T*S    EENTRO =        -0.00000000
  eigenvalues    EBANDS =      -260.91764758
  atomic energy  EATOM  =       430.16351941
  ---------------------------------------------------
  free energy    TOTEN  =       -64.25474727 eV

  energy without entropy =      -64.25474727  energy(sigma->0) =      -64.25474727
  exchange ACFDT corr.  =         0.00000000  see jH, gK, PRB 81, 115126


--------------------------------------------------------------------------------------------------------




----------------------------------------- Iteration    1(   5)  ---------------------------------------


    POTLOK:  cpu time    8.7936: real time    8.8162
    SETDIJ:  cpu time    0.1143: real time    0.1146
    TRIAL :  cpu time    6.7996: real time    6.8324
    CORREC:  cpu time   15.5759: real time   15.6291
    CHARGE:  cpu time    0.9522: real time    0.9558
    --------------------------------------------
      LOOP:  cpu time   32.2579: real time   32.3731

 eigenvalue-minimisations  :     0
 total energy-change (2. order) :-0.7878360E-02  (-0.1940077E-02)
 number of electron      14.0000000 magnetization 
 augmentation part        0.9109506 magnetization 

 Free energy of the ion-electron system (eV)
  ---------------------------------------------------
  alpha Z        PSCENC =         0.01272961
  Ewald energy   TEWEN  =       609.39947796
  -Hartree energ DENC   =      -994.66937385
  -exchange      EXHF   =       151.84153345
  -V(xc)+E(xc)   XCENC  =         0.00000000
  PAW double counting   =      5117.76902823    -5117.54630646
  entropy T*S    EENTRO =        -0.00000000
  eigenvalues    EBANDS =      -261.23323398
  atomic energy  EATOM  =       430.16351941
  ---------------------------------------------------
  free energy    TOTEN  =       -64.26262563 eV

  energy without entropy =      -64.26262563  energy(sigma->0) =      -64.26262563
  exchange ACFDT corr.  =         0.00000000  see jH, gK, PRB 81, 115126


--------------------------------------------------------------------------------------------------------




----------------------------------------- Iteration    1(   6)  ---------------------------------------


    POTLOK:  cpu time    8.7885: real time    8.8100
    SETDIJ:  cpu time    0.1150: real time    0.1153
    TRIAL :  cpu time    6.7644: real time    6.7971
    CORREC:  cpu time   15.5971: real time   15.6510
    CHARGE:  cpu time    0.9457: real time    0.9493
    --------------------------------------------
      LOOP:  cpu time   32.2283: real time   32.3426

 eigenvalue-minimisations  :     0
 total energy-change (2. order) :-0.1940118E-02  (-0.5180947E-03)
 number of electron      14.0000000 magnetization 
 augmentation part        0.9102929 magnetization 

 Free energy of the ion-electron system (eV)
  ---------------------------------------------------
  alpha Z        PSCENC =         0.01272961
  Ewald energy   TEWEN  =       609.39947796
  -Hartree energ DENC   =      -994.85131866
  -exchange      EXHF   =       151.88370974
  -V(xc)+E(xc)   XCENC  =         0.00000000
  PAW double counting   =      5103.74024093    -5103.51822060
  entropy T*S    EENTRO =        -0.00000000
  eigenvalues    EBANDS =      -261.09470413
  atomic energy  EATOM  =       430.16351941
  ---------------------------------------------------
  free energy    TOTEN  =       -64.26456575 eV

  energy without entropy =      -64.26456575  energy(sigma->0) =      -64.26456575
  exchange ACFDT corr.  =         0.00000000  see jH, gK, PRB 81, 115126


--------------------------------------------------------------------------------------------------------




----------------------------------------- Iteration    1(   7)  ---------------------------------------


    POTLOK:  cpu time    8.7898: real time    8.8113
    SETDIJ:  cpu time    0.1140: real time    0.1142
    TRIAL :  cpu time    6.7856: real time    6.8183
    CORREC:  cpu time   15.5935: real time   15.6476
    CHARGE:  cpu time    0.9467: real time    0.9501
    --------------------------------------------
      LOOP:  cpu time   32.2504: real time   32.3647

 eigenvalue-minimisations  :     0
 total energy-change (2. order) :-0.5181678E-03  (-0.1798086E-03)
 number of electron      14.0000000 magnetization 
 augmentation part        0.9102105 magnetization 

 Free energy of the ion-electron system (eV)
  ---------------------------------------------------
  alpha Z        PSCENC =         0.01272961
  Ewald energy   TEWEN  =       609.39947796
  -Hartree energ DENC   =      -994.79388166
  -exchange      EXHF   =       151.88456453
  -V(xc)+E(xc)   XCENC  =         0.00000000
  PAW double counting   =      5119.67784592    -5119.45562013
  entropy T*S    EENTRO =        -0.00000000
  eigenvalues    EBANDS =      -261.15371955
  atomic energy  EATOM  =       430.16351941
  ---------------------------------------------------
  free energy    TOTEN  =       -64.26508391 eV

  energy without entropy =      -64.26508391  energy(sigma->0) =      -64.26508391
  exchange ACFDT corr.  =         0.00000000  see jH, gK, PRB 81, 115126


--------------------------------------------------------------------------------------------------------




----------------------------------------- Iteration    1(   8)  ---------------------------------------


    POTLOK:  cpu time    8.8026: real time    8.8241
    SETDIJ:  cpu time    0.1140: real time    0.1143
    TRIAL :  cpu time    6.9304: real time    6.9637
    CORREC:  cpu time   15.7889: real time   15.8433
    CHARGE:  cpu time    0.9475: real time    0.9511
    --------------------------------------------
      LOOP:  cpu time   32.6027: real time   32.7181

 eigenvalue-minimisations  :     0
 total energy-change (2. order) :-0.1800058E-03  (-0.5763450E-04)
 number of electron      14.0000000 magnetization 
 augmentation part        0.9104651 magnetization 

 Free energy of the ion-electron system (eV)
  ---------------------------------------------------
  alpha Z        PSCENC =         0.01272961
  Ewald energy   TEWEN  =       609.39947796
  -Hartree energ DENC   =      -994.80944384
  -exchange      EXHF   =       151.88997207
  -V(xc)+E(xc)   XCENC  =         0.00000000
  PAW double counting   =      5122.90345510    -5122.68109518
  entropy T*S    EENTRO =        -0.00000000
  eigenvalues    EBANDS =      -261.14387905
  atomic energy  EATOM  =       430.16351941
  ---------------------------------------------------
  free energy    TOTEN  =       -64.26526392 eV

  energy without entropy =      -64.26526392  energy(sigma->0) =      -64.26526392
  exchange ACFDT corr.  =        -0.00000000  see jH, gK, PRB 81, 115126


--------------------------------------------------------------------------------------------------------




----------------------------------------- Iteration    1(   9)  ---------------------------------------


    POTLOK:  cpu time    8.7923: real time    8.8136
    SETDIJ:  cpu time    0.1150: real time    0.1153
    TRIAL :  cpu time    6.8336: real time    6.8665
    CORREC:  cpu time   15.6248: real time   15.6787
    CHARGE:  cpu time    0.9512: real time    0.9548
    --------------------------------------------
      LOOP:  cpu time   32.3373: real time   32.4519

 eigenvalue-minimisations  :     0
 total energy-change (2. order) :-0.5770635E-04  (-0.2198594E-04)
 number of electron      14.0000000 magnetization 
 augmentation part        0.9103088 magnetization 

 Free energy of the ion-electron system (eV)
  ---------------------------------------------------
  alpha Z        PSCENC =         0.01272961
  Ewald energy   TEWEN  =       609.39947796
  -Hartree energ DENC   =      -994.83512264
  -exchange      EXHF   =       151.89291464
  -V(xc)+E(xc)   XCENC  =         0.00000000
  PAW double counting   =      5115.30106809    -5115.07853882
  entropy T*S    EENTRO =        -0.00000000
  eigenvalues    EBANDS =      -261.12136986
  atomic energy  EATOM  =       430.16351941
  ---------------------------------------------------
  free energy    TOTEN  =       -64.26532163 eV

  energy without entropy =      -64.26532163  energy(sigma->0) =      -64.26532163
  exchange ACFDT corr.  =         0.00000000  see jH, gK, PRB 81, 115126


--------------------------------------------------------------------------------------------------------




----------------------------------------- Iteration    1(  10)  ---------------------------------------


    POTLOK:  cpu time    8.7970: real time    8.8184
    SETDIJ:  cpu time    0.1132: real time    0.1135
    TRIAL :  cpu time    6.8080: real time    6.8408
    CORREC:  cpu time   15.5459: real time   15.5998
    CHARGE:  cpu time    0.9529: real time    0.9565
    --------------------------------------------
      LOOP:  cpu time   32.2355: real time   32.3498

 eigenvalue-minimisations  :     0
 total energy-change (2. order) :-0.2203592E-04  (-0.1073696E-04)
 number of electron      14.0000000 magnetization 
 augmentation part        0.9103865 magnetization 

 Free energy of the ion-electron system (eV)
  ---------------------------------------------------
  alpha Z        PSCENC =         0.01272961
  Ewald energy   TEWEN  =       609.39947796
  -Hartree energ DENC   =      -994.82360064
  -exchange      EXHF   =       151.89149658
  -V(xc)+E(xc)   XCENC  =         0.00000000
  PAW double counting   =      5117.10757444    -5116.88530074
  entropy T*S    EENTRO =        -0.00000000
  eigenvalues    EBANDS =      -261.13124027
  atomic energy  EATOM  =       430.16351941
  ---------------------------------------------------
  free energy    TOTEN  =       -64.26534366 eV

  energy without entropy =      -64.26534366  energy(sigma->0) =      -64.26534366
  exchange ACFDT corr.  =         0.00000000  see jH, gK, PRB 81, 115126


--------------------------------------------------------------------------------------------------------




----------------------------------------- Iteration    1(  11)  ---------------------------------------


    POTLOK:  cpu time    8.7989: real time    8.8203
    SETDIJ:  cpu time    0.1138: real time    0.1140
    TRIAL :  cpu time    6.7846: real time    6.8169
    CORREC:  cpu time   15.5350: real time   15.5882
    CHARGE:  cpu time    0.9481: real time    0.9518
    --------------------------------------------
      LOOP:  cpu time   32.2002: real time   32.3135

 eigenvalue-minimisations  :     0
 total energy-change (2. order) :-0.1079476E-04  (-0.5588819E-05)
 number of electron      14.0000000 magnetization 
 augmentation part        0.9104377 magnetization 

 Free energy of the ion-electron system (eV)
  ---------------------------------------------------
  alpha Z        PSCENC =         0.01272961
  Ewald energy   TEWEN  =       609.39947796
  -Hartree energ DENC   =      -994.83431930
  -exchange      EXHF   =       151.89204620
  -V(xc)+E(xc)   XCENC  =         0.00000000
  PAW double counting   =      5115.41780892    -5115.19564890
  entropy T*S    EENTRO =        -0.00000000
  eigenvalues    EBANDS =      -261.12096835
  atomic energy  EATOM  =       430.16351941
  ---------------------------------------------------
  free energy    TOTEN  =       -64.26535446 eV

  energy without entropy =      -64.26535446  energy(sigma->0) =      -64.26535446
  exchange ACFDT corr.  =         0.00000000  see jH, gK, PRB 81, 115126


--------------------------------------------------------------------------------------------------------




----------------------------------------- Iteration    1(  12)  ---------------------------------------


    POTLOK:  cpu time    8.7826: real time    8.8040
    SETDIJ:  cpu time    0.1140: real time    0.1143
    TRIAL :  cpu time    6.7665: real time    6.7995
    CORREC:  cpu time   15.6099: real time   15.6636
    CHARGE:  cpu time    0.9470: real time    0.9504
    --------------------------------------------
      LOOP:  cpu time   32.2373: real time   32.3516

 eigenvalue-minimisations  :     0
 total energy-change (2. order) :-0.5615501E-05  (-0.2290156E-05)
 number of electron      14.0000000 magnetization 
 augmentation part        0.9103811 magnetization 

 Free energy of the ion-electron system (eV)
  ---------------------------------------------------
  alpha Z        PSCENC =         0.01272961
  Ewald energy   TEWEN  =       609.39947796
  -Hartree energ DENC   =      -994.83587407
  -exchange      EXHF   =       151.89157092
  -V(xc)+E(xc)   XCENC  =         0.00000000
  PAW double counting   =      5114.32609150    -5114.10396147
  entropy T*S    EENTRO =        -0.00000000
  eigenvalues    EBANDS =      -261.11891393
  atomic energy  EATOM  =       430.16351941
  ---------------------------------------------------
  free energy    TOTEN  =       -64.26536007 eV

  energy without entropy =      -64.26536007  energy(sigma->0) =      -64.26536007
  exchange ACFDT corr.  =         0.00000000  see jH, gK, PRB 81, 115126


--------------------------------------------------------------------------------------------------------




----------------------------------------- Iteration    1(  13)  ---------------------------------------


    POTLOK:  cpu time    8.7897: real time    8.8111
    SETDIJ:  cpu time    0.1146: real time    0.1149
    TRIAL :  cpu time    6.7752: real time    6.8077
    CORREC:  cpu time   15.5773: real time   15.6318
    CHARGE:  cpu time    0.9465: real time    0.9501
    --------------------------------------------
      LOOP:  cpu time   32.2236: real time   32.3385

 eigenvalue-minimisations  :     0
 total energy-change (2. order) :-0.2294181E-05  (-0.7473843E-06)
 number of electron      14.0000000 magnetization 
 augmentation part        0.9104245 magnetization 

 Free energy of the ion-electron system (eV)
  ---------------------------------------------------
  alpha Z        PSCENC =         0.01272961
  Ewald energy   TEWEN  =       609.39947796
  -Hartree energ DENC   =      -994.83044857
  -exchange      EXHF   =       151.89090161
  -V(xc)+E(xc)   XCENC  =         0.00000000
  PAW double counting   =      5115.65290162    -5115.43083695
  entropy T*S    EENTRO =        -0.00000000
  eigenvalues    EBANDS =      -261.12360705
  atomic energy  EATOM  =       430.16351941
  ---------------------------------------------------
  free energy    TOTEN  =       -64.26536237 eV

  energy without entropy =      -64.26536237  energy(sigma->0) =      -64.26536237
  exchange ACFDT corr.  =         0.00000000  see jH, gK, PRB 81, 115126


--------------------------------------------------------------------------------------------------------




----------------------------------------- Iteration    1(  14)  ---------------------------------------


    POTLOK:  cpu time    8.7865: real time    8.8079
    SETDIJ:  cpu time    0.1156: real time    0.1159
    TRIAL :  cpu time    6.7719: real time    6.8045
    CORREC:  cpu time   15.5566: real time   15.6104
    CHARGE:  cpu time    0.9495: real time    0.9531
    --------------------------------------------
      LOOP:  cpu time   32.2003: real time   32.3211

 eigenvalue-minimisations  :     0
 total energy-change (2. order) :-0.7446413E-06  (-0.2687051E-06)
 number of electron      14.0000000 magnetization 
 augmentation part        0.9104302 magnetization 

 Free energy of the ion-electron system (eV)
  ---------------------------------------------------
  alpha Z        PSCENC =         0.01272961
  Ewald energy   TEWEN  =       609.39947796
  -Hartree energ DENC   =      -994.83635967
  -exchange      EXHF   =       151.89159786
  -V(xc)+E(xc)   XCENC  =         0.00000000
  PAW double counting   =      5115.21075071    -5114.98870826
  entropy T*S    EENTRO =        -0.00000000
  eigenvalues    EBANDS =      -261.11837072
  atomic energy  EATOM  =       430.16351941
  ---------------------------------------------------
  free energy    TOTEN  =       -64.26536311 eV

  energy without entropy =      -64.26536311  energy(sigma->0) =      -64.26536311
  exchange ACFDT corr.  =         0.00000000  see jH, gK, PRB 81, 115126


--------------------------------------------------------------------------------------------------------




----------------------------------------- Iteration    1(  15)  ---------------------------------------


    POTLOK:  cpu time    8.7981: real time    8.8196
    SETDIJ:  cpu time    0.1153: real time    0.1155
    TRIAL :  cpu time    6.7699: real time    6.8027
    CORREC:  cpu time   15.5640: real time   15.6174
    CHARGE:  cpu time    0.9487: real time    0.9522
    --------------------------------------------
      LOOP:  cpu time   32.2144: real time   32.3284

 eigenvalue-minimisations  :     0
 total energy-change (2. order) :-0.2676782E-06  (-0.8971978E-07)
 number of electron      14.0000000 magnetization 
 augmentation part        0.9104339 magnetization 

 Free energy of the ion-electron system (eV)
  ---------------------------------------------------
  alpha Z        PSCENC =         0.01272961
  Ewald energy   TEWEN  =       609.39947796
  -Hartree energ DENC   =      -994.83553822
  -exchange      EXHF   =       151.89152506
  -V(xc)+E(xc)   XCENC  =         0.00000000
  PAW double counting   =      5115.27360980    -5115.05159557
  entropy T*S    EENTRO =        -0.00000000
  eigenvalues    EBANDS =      -261.11909143
  atomic energy  EATOM  =       430.16351941
  ---------------------------------------------------
  free energy    TOTEN  =       -64.26536338 eV

  energy without entropy =      -64.26536338  energy(sigma->0) =      -64.26536338
  exchange ACFDT corr.  =         0.00000000  see jH, gK, PRB 81, 115126


--------------------------------------------------------------------------------------------------------




----------------------------------------- Iteration    1(  16)  ---------------------------------------


    POTLOK:  cpu time    8.7867: real time    8.8081
    SETDIJ:  cpu time    0.1131: real time    0.1134
    TRIAL :  cpu time    6.7437: real time    6.7761
    CORREC:  cpu time   15.5189: real time   15.5726
    CHARGE:  cpu time    0.9471: real time    0.9506
    --------------------------------------------
      LOOP:  cpu time   32.1292: real time   32.2429

 eigenvalue-minimisations  :     0
 total energy-change (2. order) :-0.8940674E-07  (-0.3132610E-07)
 number of electron      14.0000000 magnetization 
 augmentation part        0.9104351 magnetization 

 Free energy of the ion-electron system (eV)
  ---------------------------------------------------
  alpha Z        PSCENC =         0.01272961
  Ewald energy   TEWEN  =       609.39947796
  -Hartree energ DENC   =      -994.83468211
  -exchange      EXHF   =       151.89145038
  -V(xc)+E(xc)   XCENC  =         0.00000000
  PAW double counting   =      5115.31130497    -5115.08929998
  entropy T*S    EENTRO =        -0.00000000
  eigenvalues    EBANDS =      -261.11986371
  atomic energy  EATOM  =       430.16351941
  ---------------------------------------------------
  free energy    TOTEN  =       -64.26536347 eV

  energy without entropy =      -64.26536347  energy(sigma->0) =      -64.26536347
  exchange ACFDT corr.  =         0.00000000  see jH, gK, PRB 81, 115126


--------------------------------------------------------------------------------------------------------


  average scaling for gradient   1.0035


 average (electrostatic) potential at core
  the test charge radii are     0.9051  0.8471  0.6256
  (the norm of the test charge is              1.0000)
       1 -62.9319       2 -65.9043       3 -21.8911       4 -21.8984       5 -20.3382
       6 -20.2375       7 -20.3234
 
 
 
 E-fermi : -10.6308     XC(G=0):   0.0000     alpha+bet : -0.0080


 k-point     1 :       0.0000    0.0000    0.0000
  band No.  band energies     occupation 
      1     -31.9434      2.00000
      2     -24.3988      2.00000
      3     -18.0045      2.00000
      4     -16.4154      2.00000
      5     -15.0956      2.00000
      6     -14.0135      2.00000
      7     -10.6885      2.00000
      8       0.0057      0.00000
      9       0.1278      0.00000
     10       0.2437      0.00000
     11       0.5243      0.00000
     12       0.4622      0.00000


--------------------------------------------------------------------------------------------------------


 soft charge-density along one line, spin component           1
         0         1         2         3         4         5         6         7         8         9
 total charge-density along one line
 
 pseudopotential strength for first ion, spin component:           1
 22.214  22.684   0.089  -0.148  -0.052   0.108  -0.179  -0.063
 22.684  23.164   0.091  -0.151  -0.053   0.111  -0.183  -0.064
  0.089   0.091  -0.911  -0.105  -0.036  -0.723  -0.123  -0.042
 -0.148  -0.151  -0.105  -0.778   0.062  -0.123  -0.567   0.073
 -0.052  -0.053  -0.036   0.062  -0.950  -0.042   0.073  -0.770
  0.108   0.111  -0.723  -0.123  -0.042  -0.425  -0.145  -0.050
 -0.179  -0.183  -0.123  -0.567   0.073  -0.145  -0.240   0.086
 -0.063  -0.064  -0.042   0.073  -0.770  -0.050   0.086  -0.479
 total augmentation occupancy for first ion, spin component:           1
 21.530 -24.882   5.682 -11.870  -3.506  -3.450   7.798   2.175
-24.882  29.618  -6.046  12.157   3.691   3.867  -8.239  -2.396
  5.682  -6.046  24.974   5.575   1.545 -16.697  -4.379  -1.177
-11.870  12.157   5.575  18.964  -3.166  -4.383 -12.065   2.477
 -3.506   3.691   1.545  -3.166  26.435  -1.177   2.475 -17.787
 -3.450   3.867 -16.697  -4.383  -1.177  11.238   3.288   0.849
  7.798  -8.239  -4.379 -12.065   2.475   3.288   7.818  -1.849
  2.175  -2.396  -1.177   2.477 -17.787   0.849  -1.849  12.001


------------------------ aborting loop because EDIFF is reached ----------------------------------------



 DIPCOR: dipole corrections for dipol
 direction  1 min pos   357, direction  2 min pos   373, direction  3 min pos   381,
 dipolmoment          -0.091381      0.157996     -0.250025 electrons x Angstroem
 Tr[quadrupol]         7.337902

 energy correction for charged system         0.000000 eV
 dipol+quadrupol energy correction            0.000067 eV
 added-field ion interaction          0.000000 eV  (added to PSCEN)

 
  *************** adding dipol energy to TOTEN NOW **************** 
    FORLOC:  cpu time    0.7155: real time    0.7172
    FORHF :  cpu time    4.1922: real time    4.2031
    FORNL :  cpu time    0.1547: real time    0.1550
    OFIELD:  cpu time    0.0741: real time    0.0743

 VOLUME and BASIS-vectors are now :
 -----------------------------------------------------------------------------
  energy-cutoff  :     1000.00
  volume of cell :    42875.00
      direct lattice vectors                 reciprocal lattice vectors
    35.000000000  0.000000000  0.000000000     0.028571429  0.000000000  0.000000000
     0.000000000 35.000000000  0.000000000     0.000000000  0.028571429  0.000000000
     0.000000000  0.000000000 35.000000000     0.000000000  0.000000000  0.028571429

  length of vectors
    35.000000000 35.000000000 35.000000000     0.028571429  0.028571429  0.028571429


 FORCES acting on ions:
    Electron-Ion                     Ewald-Force                    Non-Local-Force
 -----------------------------------------------------------------------------------------------
   -.117E+02 0.429E+02 0.111E+03   -.749E+00 -.217E+02 -.147E+03   0.616E+01 -.102E+02 0.192E+02
   0.203E+02 -.564E+02 -.809E+02   -.217E+02 0.602E+02 0.855E+02   0.108E+01 -.295E+01 -.378E+01
   -.781E+02 0.212E+02 0.140E+02   0.853E+02 -.227E+02 -.147E+02   -.430E+01 0.867E+00 0.262E+00
   0.357E+02 0.739E+02 0.587E+01   -.393E+02 -.805E+02 -.572E+01   0.213E+01 0.385E+01 -.196E+00
   0.623E+02 -.188E+02 -.116E+02   -.682E+02 0.200E+02 0.119E+02   0.364E+01 -.776E+00 -.173E+00
   -.140E+02 0.187E+02 -.610E+02   0.155E+02 -.211E+02 0.661E+02   -.962E+00 0.146E+01 -.318E+01
   -.263E+02 -.605E+02 -.409E+01   0.291E+02 0.659E+02 0.364E+01   -.172E+01 -.329E+01 0.287E+00
 -----------------------------------------------------------------------------------------------
   -.118E+02 0.211E+02 -.271E+02   -.249E-13 0.000E+00 -.226E-13   0.604E+01 -.110E+02 0.124E+02
 
 
 POSITION                                       TOTAL-FORCE (eV/Angst)
 -----------------------------------------------------------------------------------
     34.10655     34.95616     34.95700         0.243611     -0.287950      0.528853
     33.82422      0.75791      1.14524        -0.146127      0.412733      0.092384
      0.09695     34.74394     34.92893        -0.122523      0.048849     -0.209748
     33.63156     34.06661      0.03384        -0.030503      0.029182     -0.197037
     32.75837      0.97222      1.19502         0.127524     -0.055650     -0.017741
     34.11921      0.30425      2.09721        -0.017900     -0.022660     -0.219246
     34.33699      1.71433      1.06081        -0.054082     -0.124503      0.022536
 -----------------------------------------------------------------------------------
    total drift:                               -0.001068      0.002043     -0.002226


--------------------------------------------------------------------------------------------------------



  FREE ENERGIE OF THE ION-ELECTRON SYSTEM (eV)
  ---------------------------------------------------
  free  energy   TOTEN  =       -64.26529606 eV

  energy  without entropy=      -64.26529606  energy(sigma->0) =      -64.26529606
 


--------------------------------------------------------------------------------------------------------


    POTLOK:  cpu time    8.8810: real time    8.9026


--------------------------------------------------------------------------------------------------------


     LOOP+:  cpu time  810.7028: real time  814.0178
    4ORBIT:  cpu time    0.0000: real time    0.0000

 total amount of memory used by VASP on root node  1963860. kBytes
========================================================================

   base      :      30000. kBytes
   nonl-proj :      58492. kBytes
   fftplans  :     693297. kBytes
   grid      :    1154248. kBytes
   one-center:          1. kBytes
   HF        :          4. kBytes
   nonlr-proj:        113. kBytes
   wavefun   :      27705. kBytes
 
  
  
 General timing and accounting informations for this job:
 ========================================================
  
                  Total CPU time used (sec):     1181.441
                            User time (sec):     1052.144
                          System time (sec):      129.297
                         Elapsed time (sec):     1187.326
  
                   Maximum memory used (kb):     2633252.
                   Average memory used (kb):           0.
  
                          Minor page faults:       420557
                          Major page faults:            0
                 Voluntary context switches:        77534
 
 PROFILE, used timers:      34
 =============================
 
 index                 routine                    time                            calls level
----------------------------------------------------------------------------------------------
    1    total_time                         1187.327917                                1   1
    2      w1_copy                               0.115309                            175   2
    3      fftwav_mpi                           18.113249                            172   2
    4      fftext_mpi                            0.208219                              3   2
    5      overl                                 0.000151                            113   2
    6      orth1                                 0.072164                             65   2
    7      lincom                                0.152437                             97   2
    8      fock_acc                             85.531419                             32   2
    9        w1_copy                               0.103651                          112   3
   10        fftwav_mpi                            5.712430                          112   3
   11        fock_charge_mu                        4.327788                           64   3
   12          racc0mu_hf                            0.115241                         64   4
   13        rpromu_hf                             0.187753                           64   3
   14        overl1                                0.000041                           48   3
   15        fftext_mpi                            1.767026                           48   3
   16      hamilt_local                          5.138735                             48   2
   17        vhamil                                1.165024                           48   3
   18        kinhamil                              3.973570                           48   3
   19          fftext_mpi                            3.941544                         48   4
   20      eccp                                  2.832879                            144   2
   21      w1_dscal                              0.553285                             48   2
   22      pdssyex_zheevx                        0.106243                             32   2
   23      eddiag                               91.859590                             16   2
   24        fock_acc                             85.904888                           32   3
   25          w1_copy                               0.112081                        112   4
   26          fftwav_mpi                            5.875824                        112   4
   27          fock_charge_mu                        4.329725                         64   4
   28            racc0mu_hf                            0.120275                       64   5
   29          rpromu_hf                             0.182592                         64   4
   30          overl1                                0.000038                         48   4
   31          fftext_mpi                            1.714139                         48   4
   32        fftwav_mpi                            4.921847                           48   3
   33        eccp                                  0.760510                           48   3
   34      rpro1_hf                              0.054982                             96   2
 
 Flat profile
 ============
 
             routine name                   CPU           calls
 ---------------------------------------------------------------
 total_time                            982.589255           1
 fock_acc                              147.123219          64
 fftwav_mpi                             34.623350         444
 fock_charge_mu                          8.421997         128
 fftext_mpi                              7.630928         147
 eccp                                    3.593389         192
 vhamil                                  1.165024          48
 w1_dscal                                0.553285          48
 rpromu_hf                               0.370345         128
 w1_copy                                 0.331041         399
 eddiag                                  0.272345          16
 racc0mu_hf                              0.235516         128
 lincom                                  0.152437          97
 pdssyex_zheevx                          0.106243          32
 orth1                                   0.072164          65
 rpro1_hf                                0.054982          96
 kinhamil                                0.032026          48
 overl                                   0.000151         113
 hamilt_local                            0.000141          48
 overl1                                  0.000078          96
 ---------------------------------------------------------------
  summed up times    1187.32791686058     
 
Profiling took   0.004738  0.003556  0.003237  0.003216 seconds
Profiling took   0.001187 seconds
