 vasp.5.4.1 24Jun15 (build Jan 02 2020 16:21:29) gamma-only                     
  
 executed on           IFC15_impi date 2020.08.27  13:54:09
 running on   32 total cores
 distrk:  each k-point on   32 cores,    1 groups
 distr:  one band on NCORES_PER_BAND=   8 cores,    4 groups


--------------------------------------------------------------------------------------------------------


 INCAR:
 POTCAR:    PAW_PBE C_s 06Sep2000                 
 POTCAR:    PAW_PBE H_s 15May2010                 
 POTCAR:    PAW_PBE C_s 06Sep2000                 
   VRHFIN =C: s2p2                                                              
   LEXCH  = PE                                                                  
   EATOM  =   147.1560 eV,   10.8157 Ry                                         
                                                                                
   TITEL  = PAW_PBE C_s 06Sep2000                                               
   LULTRA =        F    use ultrasoft PP ?                                      
   IUNSCR =        0    unscreen: 0-lin 1-nonlin 2-no                           
   RPACOR =    0.000    partial core radius                                     
   POMASS =   12.011; ZVAL   =    4.000    mass and valenz                      
   RCORE  =    1.850    outmost cutoff radius                                   
   RWIGS  =    1.890; RWIGS  =    1.000    wigner-seitz radius (au A)           
   ENMAX  =  273.911; ENMIN  =  205.433 eV                                      
   RCLOC  =    0.804    cutoff for local pot                                    
   LCOR   =        T    correct aug charges                                     
   LPAW   =        T    paw PP                                                  
   EAUG   =  439.243                                                            
   DEXC   =    0.000                                                            
   RMAX   =    1.897    core radius for proj-oper                               
   RAUG   =    1.300    factor for augmentation sphere                          
   RDEP   =    1.940    radius for radial grids                                 
   RDEPT  =    1.573    core radius for aug-charge                              
                                                                                
   Atomic configuration                                                         
    4 entries                                                                   
     n  l   j            E        occ.                                          
     1  0  0.50      -273.3789   2.0000                                         
     2  0  0.50       -13.7508   2.0000                                         
     2  1  0.50        -5.2854   2.0000                                         
     3  2  1.50        -1.3606   0.0000                                         
   Description                                                                  
     l       E           TYP  RCUT    TYP  RCUT                                 
     0    -13.7508457     23  1.500                                             
     0    -11.0934578     23  1.500                                             
     1     -5.2854381     23  1.850                                             
     1     -1.3099858     23  1.850                                             
  local pseudopotential read in
  atomic valenz-charges read in
  non local Contribution for L=           0  read in
    real space projection operators read in
  non local Contribution for L=           0  read in
    real space projection operators read in
  non local Contribution for L=           1  read in
    real space projection operators read in
  non local Contribution for L=           1  read in
    real space projection operators read in
    PAW grid and wavefunctions read in
 
   number of l-projection  operators is LMAX  =           4
   number of lm-projection operators is LMMAX =           8
 
 POTCAR:    PAW_PBE H_s 15May2010                 
   VRHFIN =H: ultrasoft test                                                    
   LEXCH  = PE                                                                  
   EATOM  =    12.4884 eV,    0.9179 Ry                                         
                                                                                
   TITEL  = PAW_PBE H_s 15May2010                                               
   LULTRA =        F    use ultrasoft PP ?                                      
   IUNSCR =        0    unscreen: 0-lin 1-nonlin 2-no                           
   RPACOR =    0.000    partial core radius                                     
   POMASS =    1.000; ZVAL   =    1.000    mass and valenz                      
   RCORE  =    1.300    outmost cutoff radius                                   
   RWIGS  =    0.700; RWIGS  =    0.370    wigner-seitz radius (au A)           
   ENMAX  =  200.000; ENMIN  =  150.000 eV                                      
   RCLOC  =    0.701    cutoff for local pot                                    
   LCOR   =        T    correct aug charges                                     
   LPAW   =        T    paw PP                                                  
   EAUG   =  300.000                                                            
   RMAX   =    1.330    core radius for proj-oper                               
   RAUG   =    1.200    factor for augmentation sphere                          
   RDEP   =    1.337    radius for radial grids                                 
   RDEPT  =    1.114    core radius for aug-charge                              
                                                                                
   Atomic configuration                                                         
    2 entries                                                                   
     n  l   j            E        occ.                                          
     1  0  0.50        -6.4927   1.0000                                         
     2  1  0.50        -3.4015   0.0000                                         
   Description                                                                  
     l       E           TYP  RCUT    TYP  RCUT                                 
     0     -6.4927494     23  1.300                                             
     0      6.8029130     23  1.300                                             
     1     -4.0817478     23  1.300                                             
  local pseudopotential read in
  atomic valenz-charges read in
  non local Contribution for L=           0  read in
    real space projection operators read in
  non local Contribution for L=           0  read in
    real space projection operators read in
  non local Contribution for L=           1  read in
    real space projection operators read in
    PAW grid and wavefunctions read in
 
   number of l-projection  operators is LMAX  =           3
   number of lm-projection operators is LMMAX =           5
 
  PAW_PBE C_s 06Sep2000                 :
 energy of atom  1       EATOM= -147.1560
 kinetic energy error for atom=    0.0002 (will be added to EATOM!!)
  PAW_PBE H_s 15May2010                 :
 energy of atom  2       EATOM=  -12.4884
 kinetic energy error for atom=    0.0000 (will be added to EATOM!!)
 
 
 POSCAR: C H                                     
  positions in cartesian coordinates
  No initial velocities read in
 exchange correlation table for  LEXCH =        8
   RHO(1)=    0.500       N(1)  =     2000
   RHO(2)=  100.500       N(2)  =     4000
 


--------------------------------------------------------------------------------------------------------


 ion  position               nearest neighbor table
   1  0.024  0.032  0.001-   7 1.08   6 1.39   2 1.39
   2  0.040  0.995  0.001-   8 1.08   1 1.39   3 1.39
   3  0.016  0.963  0.001-   9 1.08   4 1.39   2 1.39
   4  0.976  0.968  0.001-  10 1.08   3 1.39   5 1.39
   5  0.960  0.005  0.001-  11 1.08   4 1.39   6 1.39
   6  0.984  0.037  0.001-  12 1.08   1 1.39   5 1.39
   7  0.042  0.057  0.001-   1 1.08
   8  0.070  0.992  0.001-   2 1.08
   9  0.028  0.935  0.001-   3 1.08
  10  0.958  0.943  0.001-   4 1.08
  11  0.930  0.008  0.001-   5 1.08
  12  0.972  0.065  0.001-   6 1.08
 
  LATTYP: Found a simple cubic cell.
 ALAT       =    35.0000000000
  
  Lattice vectors:
  
 A1 = (  35.0000000000,   0.0000000000,   0.0000000000)
 A2 = (   0.0000000000,  35.0000000000,   0.0000000000)
 A3 = (   0.0000000000,   0.0000000000,  35.0000000000)


Analysis of symmetry for initial positions (statically):
=====================================================================
 Subroutine PRICEL returns:
 Original cell was already a primitive cell.
 

 Routine SETGRP: Setting up the symmetry group for a 
 simple cubic supercell.


 Subroutine GETGRP returns: Found  2 space group operations
 (whereof  2 operations were pure point group operations)
 out of a pool of 48 trial point group operations.


The static configuration has the point symmetry C_2 .


Analysis of symmetry for dynamics (positions and initial velocities):
=====================================================================
 Subroutine PRICEL returns:
 Original cell was already a primitive cell.
 

 Routine SETGRP: Setting up the symmetry group for a 
 simple cubic supercell.


 Subroutine GETGRP returns: Found  2 space group operations
 (whereof  2 operations were pure point group operations)
 out of a pool of 48 trial point group operations.


The dynamic configuration has the point symmetry C_2 .
 
 
 KPOINTS: automatic mesh                          

Automatic generation of k-mesh.
Space group operators:
 irot       det(A)        alpha          n_x          n_y          n_z        tau_x        tau_y        tau_z
    1     1.000000     0.000000     1.000000     0.000000     0.000000     0.000000     0.000000     0.000000
    2     1.000000   180.000000     0.000000     0.000000     1.000000     0.000000     0.000000     0.000000
 
 Subroutine IBZKPT returns following result:
 ===========================================
 
 Found      1 irreducible k-points:
 
 Following reciprocal coordinates:
            Coordinates               Weight
  0.000000  0.000000  0.000000      1.000000
 
 Following cartesian coordinates:
            Coordinates               Weight
  0.000000  0.000000  0.000000      1.000000
 
 
 Subroutine IBZKPT_HF returns following result:
 ==============================================
 
 Found      1 k-points in 1st BZ
 the following      1 k-points will be used (e.g. in the exchange kernel)
 Following reciprocal coordinates:   # in IRBZ
  0.000000  0.000000  0.000000    1.00000000   1 t-inv F


--------------------------------------------------------------------------------------------------------




 Dimension of arrays:
   k-points           NKPTS =      1   k-points in BZ     NKDIM =      1   number of bands    NBANDS=     24
   number of dos      NEDOS =    301   number of ions     NIONS =     12
   non local maximal  LDIM  =      4   non local SUM 2l+1 LMDIM =      8
   total plane-waves  NPLWV = ******
   max r-space proj   IRMAX =      1   max aug-charges    IRDMAX=  26641
   dimension x,y,z NGX =   378 NGY =  378 NGZ =  378
   dimension x,y,z NGXF=   756 NGYF=  756 NGZF=  756
   support grid    NGXF=   756 NGYF=  756 NGZF=  756
   ions per type =               6   6
 NGX,Y,Z   is equivalent  to a cutoff of  17.95, 17.95, 17.95 a.u.
 NGXF,Y,Z  is equivalent  to a cutoff of  35.91, 35.91, 35.91 a.u.


 I would recommend the setting:
   dimension x,y,z NGX =   361 NGY =  361 NGZ =  361
 SYSTEM =  C                                       
 POSCAR =  C H                                     

 Startparameter for this run:
   NWRITE =      2    write-flag & timer
   PREC   = accura    normal or accurate (medium, high low for compatibility)
   ISTART =      1    job   : 0-new  1-cont  2-samecut
   ICHARG =      0    charge: 1-file 2-atom 10-const
   ISPIN  =      1    spin polarized calculation?
   LNONCOLLINEAR =      F non collinear calculations
   LSORBIT =      F    spin-orbit coupling
   INIWAV =      1    electr: 0-lowe 1-rand  2-diag
   LASPH  =      T    aspherical Exc in radial PAW
   METAGGA=      F    non-selfconsistent MetaGGA calc.

 Electronic Relaxation 1
   ENCUT  = 1000.0 eV  73.50 Ry    8.57 a.u.  90.25 90.25 90.25*2*pi/ulx,y,z
   ENINI  = 1000.0     initial cutoff
   ENAUG  =  439.2 eV  augmentation charge cutoff
   NELM   =     60;   NELMIN=  2; NELMDL=  0     # of ELM steps 
   EDIFF  = 0.1E-06   stopping-criterion for ELM
   LREAL  =      F    real-space projection
   NLSPLINE    = F    spline interpolate recip. space projectors
   LCOMPAT=      F    compatible to vasp.4.4
   GGA_COMPAT  = T    GGA compatible to vasp.4.4-vasp.4.6
   LMAXPAW     = -100 max onsite density
   LMAXMIX     =    2 max onsite mixed and CHGCAR
   VOSKOWN=      0    Vosko Wilk Nusair interpolation
   ROPT   =    0.00000   0.00000
 Ionic relaxation
   EDIFFG = 0.1E-05   stopping-criterion for IOM
   NSW    =      0    number of steps for IOM
   NBLOCK =      1;   KBLOCK =      1    inner block; outer block 
   IBRION =     -1    ionic relax: 0-MD 1-quasi-New 2-CG
   NFREE  =      0    steps in history (QN), initial steepest desc. (CG)
   ISIF   =      0    stress and relaxation
   IWAVPR =     10    prediction:  0-non 1-charg 2-wave 3-comb
   ISYM   =      3    0-nonsym 1-usesym 2-fastsym
   LCORR  =      T    Harris-Foulkes like correction to forces

   POTIM  = 0.5000    time-step for ionic-motion
   TEIN   =    0.0    initial temperature
   TEBEG  =    0.0;   TEEND  =   0.0 temperature during run
   SMASS  =  -3.00    Nose mass-parameter (am)
   estimated Nose-frequenzy (Omega)   =  0.10E-29 period in steps =****** mass=  -0.280E-25a.u.
   SCALEE = 1.0000    scale energy and forces
   NPACO  =    256;   APACO  = 16.0  distance and # of slots for P.C.
   PSTRESS=    0.0 pullay stress

  Mass of Ions in am
   POMASS =  12.01  1.00
  Ionic Valenz
   ZVAL   =   4.00  1.00
  Atomic Wigner-Seitz radii
   RWIGS  =  -1.00 -1.00
  virtual crystal weights 
   VCA    =   1.00  1.00
   NELECT =      30.0000    total number of electrons
   NUPDOWN=      -1.0000    fix difference up-down

 DOS related values:
   EMIN   =  10.00;   EMAX   =-10.00  energy-range for DOS
   EFERMI =   0.00
   ISMEAR =     0;   SIGMA  =   0.01  broadening in eV -4-tet -1-fermi 0-gaus

 Electronic relaxation 2 (details)
   IALGO  =     58    algorithm
   LDIAG  =      T    sub-space diagonalisation (order eigenvalues)
   LSUBROT=      F    optimize rotation matrix (better conditioning)
   TURBO    =      0    0=normal 1=particle mesh
   IRESTART =      0    0=no restart 2=restart with 2 vectors
   NREBOOT  =      0    no. of reboots
   NMIN     =      0    reboot dimension
   EREF     =   0.00    reference energy to select bands
   IMIX   =      4    mixing-type and parameters
     AMIX     =   0.40;   BMIX     =  1.00
     AMIX_MAG =   1.60;   BMIX_MAG =  1.00
     AMIN     =   0.10
     WC   =   100.;   INIMIX=   1;  MIXPRE=   1;  MAXMIX= -45

 Intra band minimization:
   WEIMIN = 0.0000     energy-eigenvalue tresh-hold
   EBREAK =  0.10E-08  absolut break condition
   DEPER  =   0.30     relativ break condition  

   TIME   =   0.40     timestep for ELM

  volume/ion in A,a.u.               =    3572.92     24111.23
  Fermi-wavevector in a.u.,A,eV,Ry     =   0.145338  0.274650  0.287399  0.021123
  Thomas-Fermi vector in A             =   0.812913
 
 Write flags
   LWAVE  =      F    write WAVECAR
   LCHARG =      T    write CHGCAR
   LVTOT  =      F    write LOCPOT, total local potential
   LVHAR  =      F    write LOCPOT, Hartree potential only
   LELF   =      F    write electronic localiz. function (ELF)
   LORBIT =      0    0 simple, 1 ext, 2 COOP (PROOUT)


 Dipole corrections
   LMONO  =      F    monopole corrections only (constant potential shift)
   LDIPOL =      F    correct potential (dipole corrections)
   IDIPOL =      4    1-x, 2-y, 3-z, 4-all directions 
   EPSILON=  1.0000000 bulk dielectric constant

 Exchange correlation treatment:
   GGA     =    --    GGA type
   LEXCH   =     8    internal setting for exchange type
   VOSKOWN=      0    Vosko Wilk Nusair interpolation
   EXXOEP  =     0    0=HF, 1=EXX-LHF (local Hartree Fock) 2=EXX OEP
   LHFCALC =     T    Hartree Fock is set to
   LSYMGRAD=     F    symmetrize gradient (conserves proper symmetry)
   PRECFOCK=normal    Normal, Fast or Accurate (Low or Medium for compatibility)
   LRHFCALC=     F    long range Hartree Fock
   LRSCOR  =     F    long range correlation only (use DFT for short range part)
   LTHOMAS =     F    Thomas Fermi screening in HF
   LMODELHF=     F    short range full HF, long range fraction AEXX
   ENCUT4O =  -1.0   cutoff for four orbital integrals eV
   LMAXFOCK=     4    L truncation for augmentation on plane wave grid
   LMAXFOCKAE=  -1    L truncation for all-electron charge restoration on plane wave grid
   NMAXFOCKAE=   1    number of basis functions for all-electron charge restoration
   LFOCKAEDFT=     F  apply the AE augmentation even for DFT
   NKREDX  =     1    reduce k-point grid by
   NKREDY  =     1    reduce k-point grid by
   NKREDZ  =     1    reduce k-point grid by
   SHIFTRED=     F    shift reduced grid of Gamma
   HFKIDENT=     F    idential grid for each k-point
   ODDONLY =     F    use only odd q-grid points
   EVENONLY=     F    use only even q-grid points
   HFALPHA =   -1.0000 decay constant for conv. correction
   MCALPHA =    0.0000 extent of test-charge in conv. correction in multipole expansion
   AEXX    =    1.0000 exact exchange contribution
   HFSCREEN=    0.0000 screening length (either q_TF or 0.3 A-1)
   HFSCREENC=   0.0000 screening length for correlation (either q_TF or 0.3 A-1)
   HFRCUT  =    0.0000 spherical cutoff for potential kernel
   ALDAX   =    0.0000 LDA exchange part
   AGGAX   =    0.0000 GGA exchange part
   ALDAC   =    0.0000 LDA correlation
   AGGAC   =    0.0000 GGA correlation
   NBANDSGWLOW=     1    first orbital included in HF term
   ENCUTFOCK=  -1.0 apply spherical cutoff to Coloumb kernel
 Linear response parameters
   LEPSILON=     F    determine dielectric tensor
   LRPA    =     F    only Hartree local field effects (RPA)
   LNABLA  =     F    use nabla operator in PAW spheres
   LVEL    =     F    velocity operator in full k-point grid
   LINTERFAST=   F  fast interpolation
   KINTER  =     0    interpolate to denser k-point grid
   CSHIFT  =0.1000    complex shift for real part using Kramers Kronig
   OMEGAMAX=  -1.0    maximum frequency
   DEG_THRESHOLD= 0.2000000E-02 threshold for treating states as degnerate
   RTIME   =    0.100 relaxation time in fs

 Orbital magnetization related:
   ORBITALMAG=     F  switch on orbital magnetization
   LCHIMAG   =     F  perturbation theory with respect to B field
   DQ        =  0.001000  dq finite difference perturbation B field



--------------------------------------------------------------------------------------------------------


 Static calculation
 charge density and potential will be updated during run
 non-spin polarized calculation
 Conjugate gradient for all bands (Freysoldt, et al. PRB 79, 241103 (2009))
 preconditioned conjugated gradient                                        
 perform sub-space diagonalisation
    before iterative eigenvector-optimisation
 modified Broyden-mixing scheme, WC =      100.0
 initial mixing is a Kerker type mixing with AMIX =  0.4000 and BMIX =      1.0000
 Hartree-type preconditioning will be used
 using additional bands            9
 reciprocal scheme for non local part
 no Harris-corrections to forces 
 use gradient corrections 
 use of overlap-Matrix (Vanderbilt PP)
 Gauss-broadening in eV      SIGMA  =   0.01


--------------------------------------------------------------------------------------------------------


  energy-cutoff  :     1000.00
  volume of cell :    42875.00
      direct lattice vectors                 reciprocal lattice vectors
    35.000000000  0.000000000  0.000000000     0.028571429  0.000000000  0.000000000
     0.000000000 35.000000000  0.000000000     0.000000000  0.028571429  0.000000000
     0.000000000  0.000000000 35.000000000     0.000000000  0.000000000  0.028571429

  length of vectors
    35.000000000 35.000000000 35.000000000     0.028571429  0.028571429  0.028571429


 
 old parameters found on file WAVECAR:
  energy-cutoff  :     1000.00
  volume of cell :    42875.00
      direct lattice vectors                 reciprocal lattice vectors
    35.000000000  0.000000000  0.000000000     0.028571429  0.000000000  0.000000000
     0.000000000 35.000000000  0.000000000     0.000000000  0.028571429  0.000000000
     0.000000000  0.000000000 35.000000000     0.000000000  0.000000000  0.028571429

  length of vectors

 
 k-points in units of 2pi/SCALE and weight: automatic mesh                          
   0.00000000  0.00000000  0.00000000       1.000
 
 k-points in reciprocal lattice and weights: automatic mesh                          
   0.00000000  0.00000000  0.00000000       1.000
 
 position of ions in fractional coordinates (direct lattice) 
   0.02387192  0.03186191  0.00061147
   0.03952214  0.99525294  0.00067901
   0.01564442  0.96339096  0.00061959
   0.97612791  0.96813824  0.00061140
   0.96047761  0.00474726  0.00067879
   0.98435526  0.03660924  0.00061944
   0.04240926  0.05658882  0.00055812
   0.07020426  0.99156558  0.00065060
   0.02779817  0.93497701  0.00056510
   0.95759045  0.94341125  0.00055800
   0.92979554  0.00843454  0.00065020
   0.97220163  0.06502301  0.00056482
 
 position of ions in cartesian coordinates  (Angst):
   0.83551718  1.11516693  0.02140131
   1.38327496 34.83385279  0.02376531
   0.54755466 33.71868368  0.02168562
  34.16447687 33.88483841  0.02139907
  33.61671642  0.16615413  0.02375775
  34.45243423  1.28132347  0.02168025
   1.48432398  1.98060858  0.01953430
   2.45714902 34.70479532  0.02277108
   0.97293610 32.72419547  0.01977853
  33.51566581 33.01939360  0.01953009
  32.54284382  0.29520906  0.02275707
  34.02705716  2.27580548  0.01976873
 


--------------------------------------------------------------------------------------------------------


 use parallel FFT for wavefunctions z direction half grid
 k-point  1 :   0.0000 0.0000 0.0000  plane waves: 1539209

 maximum and minimum number of plane-waves per node :    192406   192397

 maximum number of plane-waves:   1539209
 maximum index in each direction: 
   IXMAX=   90   IYMAX=   90   IZMAX=   90
   IXMIN=  -90   IYMIN=  -90   IZMIN=    0

 NGX is ok and might be reduce to 362
 NGY is ok and might be reduce to 362
 NGZ is ok and might be reduce to 362

 parallel 3D FFT for wavefunctions:
    minimum data exchange during FFTs selected (reduces bandwidth)
 parallel 3D FFT for charge:
    minimum data exchange during FFTs selected (reduces bandwidth)


 FFT grid for exact exchange (Hartree Fock) 
  NGX =280; NGY =280; NGZ =280

 use parallel FFT for wavefunctions z direction half grid
 
 Radii for the augmentation spheres in the non-local exchange
 for species   1 augmentation radius   1.059 (default was   0.847)
       energy cutoff for augmentation   4000.0
 for species   2 augmentation radius   0.782 (default was   0.626)
       energy cutoff for augmentation   4000.0

 real space projection operators:
  total allocation   :       1509.33 KBytes
  max/ min on nodes  :        198.70        182.67

 Maximum index for augmentation-charges in exchange          348
  SETUP_FOCK is finished

 total amount of memory used by VASP on root node  1884759. kBytes
========================================================================

   base      :      30000. kBytes
   nonl-proj :      61570. kBytes
   fftplans  :     693297. kBytes
   grid      :    1044223. kBytes
   one-center:          3. kBytes
   HF        :          9. kBytes
   nonlr-proj:        244. kBytes
   wavefun   :      55413. kBytes
 
     INWAV:  cpu time    1.8062: real time    1.8506
 Broyden mixing: mesh for mixing (old mesh)
   NGX =181   NGY =181   NGZ =181
  (NGX  =756   NGY  =756   NGZ  =756)
  gives a total of ****** points

 charge density for first step will be calculated from the start-wavefunctions


--------------------------------------------------------------------------------------------------------


 Maximum index for augmentation-charges         1451 (set IRDMAX)


--------------------------------------------------------------------------------------------------------


 initial charge from wavefunction
 FEWALD executed in parallel
    FEWALD:  cpu time    0.0051: real time    0.0051


----------------------------------------- Iteration    1(   1)  ---------------------------------------


    POTLOK:  cpu time    7.9809: real time    8.0027
    SETDIJ:  cpu time    0.0526: real time    0.0527
    TRIAL :  cpu time   20.3628: real time   20.4444
    CORREC:  cpu time   27.9984: real time   28.0993
    CHARGE:  cpu time    1.1826: real time    1.1869
    --------------------------------------------
      LOOP:  cpu time   57.6253: real time   57.8353

 eigenvalue-minimisations  :     0
 total energy-change (2. order) :-0.1285658E+03  (-0.7733869E+00)
 number of electron      30.0000000 magnetization 
 augmentation part        1.0090100 magnetization 

 Free energy of the ion-electron system (eV)
  ---------------------------------------------------
  alpha Z        PSCENC =         0.06064420
  Ewald energy   TEWEN  =      2287.36739259
  -Hartree energ DENC   =     -3054.20085897
  -exchange      EXHF   =       308.56515796
  -V(xc)+E(xc)   XCENC  =         0.00000000
  PAW double counting   =      9803.82713022    -9802.87025594
  entropy T*S    EENTRO =        -0.00000000
  eigenvalues    EBANDS =      -538.96300892
  atomic energy  EATOM  =       867.64802841
  ---------------------------------------------------
  free energy    TOTEN  =      -128.56577046 eV

  energy without entropy =     -128.56577046  energy(sigma->0) =     -128.56577046
  exchange ACFDT corr.  =         0.00000000  see jH, gK, PRB 81, 115126


--------------------------------------------------------------------------------------------------------




----------------------------------------- Iteration    1(   2)  ---------------------------------------


    POTLOK:  cpu time    8.6249: real time    8.6463
    SETDIJ:  cpu time    0.1137: real time    0.1140
    TRIAL :  cpu time   20.3987: real time   20.4803
    CORREC:  cpu time   28.1199: real time   28.2196
    CHARGE:  cpu time    1.1788: real time    1.1831
    --------------------------------------------
      LOOP:  cpu time   58.4565: real time   58.6660

 eigenvalue-minimisations  :     0
 total energy-change (2. order) :-0.7718730E+00  (-0.2869784E+00)
 number of electron      30.0000000 magnetization 
 augmentation part        1.0465798 magnetization 

 Free energy of the ion-electron system (eV)
  ---------------------------------------------------
  alpha Z        PSCENC =         0.06064420
  Ewald energy   TEWEN  =      2287.36739259
  -Hartree energ DENC   =     -3037.90589265
  -exchange      EXHF   =       308.02208430
  -V(xc)+E(xc)   XCENC  =         0.00000000
  PAW double counting   =     14518.13695500   -14517.38203469
  entropy T*S    EENTRO =        -0.00000000
  eigenvalues    EBANDS =      -555.28482057
  atomic energy  EATOM  =       867.64802841
  ---------------------------------------------------
  free energy    TOTEN  =      -129.33764341 eV

  energy without entropy =     -129.33764341  energy(sigma->0) =     -129.33764341
  exchange ACFDT corr.  =         0.00000000  see jH, gK, PRB 81, 115126


--------------------------------------------------------------------------------------------------------




----------------------------------------- Iteration    1(   3)  ---------------------------------------


    POTLOK:  cpu time    8.6250: real time    8.6464
    SETDIJ:  cpu time    0.1151: real time    0.1154
    TRIAL :  cpu time   20.3380: real time   20.4195
    CORREC:  cpu time   27.8903: real time   27.9891
    CHARGE:  cpu time    1.1844: real time    1.1885
    --------------------------------------------
      LOOP:  cpu time   58.1743: real time   58.3832

 eigenvalue-minimisations  :     0
 total energy-change (2. order) :-0.2879008E+00  (-0.5260403E-01)
 number of electron      30.0000000 magnetization 
 augmentation part        1.0641974 magnetization 

 Free energy of the ion-electron system (eV)
  ---------------------------------------------------
  alpha Z        PSCENC =         0.06064420
  Ewald energy   TEWEN  =      2287.36739259
  -Hartree energ DENC   =     -3046.29786933
  -exchange      EXHF   =       309.55325553
  -V(xc)+E(xc)   XCENC  =         0.00000000
  PAW double counting   =     14055.17378448   -14054.41380243
  entropy T*S    EENTRO =        -0.00000000
  eigenvalues    EBANDS =      -548.71697768
  atomic energy  EATOM  =       867.64802841
  ---------------------------------------------------
  free energy    TOTEN  =      -129.62554422 eV

  energy without entropy =     -129.62554422  energy(sigma->0) =     -129.62554422
  exchange ACFDT corr.  =         0.00000000  see jH, gK, PRB 81, 115126


--------------------------------------------------------------------------------------------------------




----------------------------------------- Iteration    1(   4)  ---------------------------------------


    POTLOK:  cpu time    8.6307: real time    8.6521
    SETDIJ:  cpu time    0.1141: real time    0.1144
    TRIAL :  cpu time   20.3311: real time   20.4128
    CORREC:  cpu time   27.9726: real time   28.0725
    CHARGE:  cpu time    1.1782: real time    1.1823
    --------------------------------------------
      LOOP:  cpu time   58.2458: real time   58.4556

 eigenvalue-minimisations  :     0
 total energy-change (2. order) :-0.5261368E-01  (-0.1538543E-01)
 number of electron      30.0000000 magnetization 
 augmentation part        1.0629136 magnetization 

 Free energy of the ion-electron system (eV)
  ---------------------------------------------------
  alpha Z        PSCENC =         0.06064420
  Ewald energy   TEWEN  =      2287.36739259
  -Hartree energ DENC   =     -3041.56404867
  -exchange      EXHF   =       309.13490798
  -V(xc)+E(xc)   XCENC  =         0.00000000
  PAW double counting   =     13836.05405727   -13835.30486468
  entropy T*S    EENTRO =        -0.00000000
  eigenvalues    EBANDS =      -553.07427499
  atomic energy  EATOM  =       867.64802841
  ---------------------------------------------------
  free energy    TOTEN  =      -129.67815790 eV

  energy without entropy =     -129.67815790  energy(sigma->0) =     -129.67815790
  exchange ACFDT corr.  =         0.00000000  see jH, gK, PRB 81, 115126


--------------------------------------------------------------------------------------------------------




----------------------------------------- Iteration    1(   5)  ---------------------------------------


    POTLOK:  cpu time    8.6234: real time    8.6449
    SETDIJ:  cpu time    0.1173: real time    0.1176
    TRIAL :  cpu time   20.2456: real time   20.3269
    CORREC:  cpu time   27.8478: real time   27.9471
    CHARGE:  cpu time    1.1763: real time    1.1804
    --------------------------------------------
      LOOP:  cpu time   58.0325: real time   58.2412

 eigenvalue-minimisations  :     0
 total energy-change (2. order) :-0.1539624E-01  (-0.4096772E-02)
 number of electron      30.0000000 magnetization 
 augmentation part        1.0644933 magnetization 

 Free energy of the ion-electron system (eV)
  ---------------------------------------------------
  alpha Z        PSCENC =         0.06064420
  Ewald energy   TEWEN  =      2287.36739259
  -Hartree energ DENC   =     -3042.20181429
  -exchange      EXHF   =       309.30489424
  -V(xc)+E(xc)   XCENC  =         0.00000000
  PAW double counting   =     14058.53962029   -14057.79987778
  entropy T*S    EENTRO =        -0.00000000
  eigenvalues    EBANDS =      -552.61244180
  atomic energy  EATOM  =       867.64802841
  ---------------------------------------------------
  free energy    TOTEN  =      -129.69355414 eV

  energy without entropy =     -129.69355414  energy(sigma->0) =     -129.69355414
  exchange ACFDT corr.  =         0.00000000  see jH, gK, PRB 81, 115126


--------------------------------------------------------------------------------------------------------




----------------------------------------- Iteration    1(   6)  ---------------------------------------


    POTLOK:  cpu time    8.6348: real time    8.6562
    SETDIJ:  cpu time    0.1147: real time    0.1150
    TRIAL :  cpu time   20.3208: real time   20.4029
    CORREC:  cpu time   27.9280: real time   28.0282
    CHARGE:  cpu time    1.1804: real time    1.1847
    --------------------------------------------
      LOOP:  cpu time   58.2075: real time   58.4184

 eigenvalue-minimisations  :     0
 total energy-change (2. order) :-0.4096844E-02  (-0.1295273E-02)
 number of electron      30.0000000 magnetization 
 augmentation part        1.0662429 magnetization 

 Free energy of the ion-electron system (eV)
  ---------------------------------------------------
  alpha Z        PSCENC =         0.06064420
  Ewald energy   TEWEN  =      2287.36739259
  -Hartree energ DENC   =     -3043.36619240
  -exchange      EXHF   =       309.47858445
  -V(xc)+E(xc)   XCENC  =         0.00000000
  PAW double counting   =     14144.59361549   -14143.85653714
  entropy T*S    EENTRO =        -0.00000000
  eigenvalues    EBANDS =      -551.62318658
  atomic energy  EATOM  =       867.64802841
  ---------------------------------------------------
  free energy    TOTEN  =      -129.69765098 eV

  energy without entropy =     -129.69765098  energy(sigma->0) =     -129.69765098
  exchange ACFDT corr.  =         0.00000000  see jH, gK, PRB 81, 115126


--------------------------------------------------------------------------------------------------------




----------------------------------------- Iteration    1(   7)  ---------------------------------------


    POTLOK:  cpu time    8.6254: real time    8.6469
    SETDIJ:  cpu time    0.1139: real time    0.1141
    TRIAL :  cpu time   20.3009: real time   20.3825
    CORREC:  cpu time   27.8817: real time   27.9806
    CHARGE:  cpu time    1.1835: real time    1.1877
    --------------------------------------------
      LOOP:  cpu time   58.1253: real time   58.3341

 eigenvalue-minimisations  :     0
 total energy-change (2. order) :-0.1295805E-02  (-0.4651142E-03)
 number of electron      30.0000000 magnetization 
 augmentation part        1.0669483 magnetization 

 Free energy of the ion-electron system (eV)
  ---------------------------------------------------
  alpha Z        PSCENC =         0.06064420
  Ewald energy   TEWEN  =      2287.36739259
  -Hartree energ DENC   =     -3043.63652530
  -exchange      EXHF   =       309.52304600
  -V(xc)+E(xc)   XCENC  =         0.00000000
  PAW double counting   =     14158.71155827   -14157.97554712
  entropy T*S    EENTRO =        -0.00000000
  eigenvalues    EBANDS =      -551.39754383
  atomic energy  EATOM  =       867.64802841
  ---------------------------------------------------
  free energy    TOTEN  =      -129.69894679 eV

  energy without entropy =     -129.69894679  energy(sigma->0) =     -129.69894679
  exchange ACFDT corr.  =        -0.00000000  see jH, gK, PRB 81, 115126


--------------------------------------------------------------------------------------------------------




----------------------------------------- Iteration    1(   8)  ---------------------------------------


    POTLOK:  cpu time    8.6432: real time    8.6646
    SETDIJ:  cpu time    0.1143: real time    0.1145
    TRIAL :  cpu time   20.3380: real time   20.4197
    CORREC:  cpu time   27.8245: real time   27.9248
    CHARGE:  cpu time    1.1808: real time    1.1850
    --------------------------------------------
      LOOP:  cpu time   58.1229: real time   58.3333

 eigenvalue-minimisations  :     0
 total energy-change (2. order) :-0.4652233E-03  (-0.1398036E-03)
 number of electron      30.0000000 magnetization 
 augmentation part        1.0670368 magnetization 

 Free energy of the ion-electron system (eV)
  ---------------------------------------------------
  alpha Z        PSCENC =         0.06064420
  Ewald energy   TEWEN  =      2287.36739259
  -Hartree energ DENC   =     -3043.38754090
  -exchange      EXHF   =       309.49842590
  -V(xc)+E(xc)   XCENC  =         0.00000000
  PAW double counting   =     14154.12333511   -14153.38793218
  entropy T*S    EENTRO =        -0.00000000
  eigenvalues    EBANDS =      -551.62176514
  atomic energy  EATOM  =       867.64802841
  ---------------------------------------------------
  free energy    TOTEN  =      -129.69941201 eV

  energy without entropy =     -129.69941201  energy(sigma->0) =     -129.69941201
  exchange ACFDT corr.  =         0.00000000  see jH, gK, PRB 81, 115126


--------------------------------------------------------------------------------------------------------




----------------------------------------- Iteration    1(   9)  ---------------------------------------


    POTLOK:  cpu time    8.6250: real time    8.6464
    SETDIJ:  cpu time    0.1144: real time    0.1147
    TRIAL :  cpu time   20.2351: real time   20.3166
    CORREC:  cpu time   28.0349: real time   28.1344
    CHARGE:  cpu time    1.1791: real time    1.1832
    --------------------------------------------
      LOOP:  cpu time   58.2086: real time   58.4173

 eigenvalue-minimisations  :     0
 total energy-change (2. order) :-0.1397329E-03  (-0.6622038E-04)
 number of electron      30.0000000 magnetization 
 augmentation part        1.0670102 magnetization 

 Free energy of the ion-electron system (eV)
  ---------------------------------------------------
  alpha Z        PSCENC =         0.06064420
  Ewald energy   TEWEN  =      2287.36739259
  -Hartree energ DENC   =     -3043.25781288
  -exchange      EXHF   =       309.48390108
  -V(xc)+E(xc)   XCENC  =         0.00000000
  PAW double counting   =     14153.08820161   -14152.35299206
  entropy T*S    EENTRO =        -0.00000000
  eigenvalues    EBANDS =      -551.73691470
  atomic energy  EATOM  =       867.64802841
  ---------------------------------------------------
  free energy    TOTEN  =      -129.69955174 eV

  energy without entropy =     -129.69955174  energy(sigma->0) =     -129.69955174
  exchange ACFDT corr.  =        -0.00000000  see jH, gK, PRB 81, 115126


--------------------------------------------------------------------------------------------------------




----------------------------------------- Iteration    1(  10)  ---------------------------------------


    POTLOK:  cpu time    8.6351: real time    8.6566
    SETDIJ:  cpu time    0.1149: real time    0.1152
    TRIAL :  cpu time   20.2883: real time   20.3695
    CORREC:  cpu time   27.9694: real time   28.0690
    CHARGE:  cpu time    1.1832: real time    1.1875
    --------------------------------------------
      LOOP:  cpu time   58.2134: real time   58.4226

 eigenvalue-minimisations  :     0
 total energy-change (2. order) :-0.6633184E-04  (-0.2545238E-04)
 number of electron      30.0000000 magnetization 
 augmentation part        1.0668763 magnetization 

 Free energy of the ion-electron system (eV)
  ---------------------------------------------------
  alpha Z        PSCENC =         0.06064420
  Ewald energy   TEWEN  =      2287.36739259
  -Hartree energ DENC   =     -3043.30630139
  -exchange      EXHF   =       309.48857715
  -V(xc)+E(xc)   XCENC  =         0.00000000
  PAW double counting   =     14152.39096518   -14151.65562474
  entropy T*S    EENTRO =        -0.00000000
  eigenvalues    EBANDS =      -551.69329948
  atomic energy  EATOM  =       867.64802841
  ---------------------------------------------------
  free energy    TOTEN  =      -129.69961808 eV

  energy without entropy =     -129.69961808  energy(sigma->0) =     -129.69961808
  exchange ACFDT corr.  =        -0.00000000  see jH, gK, PRB 81, 115126


--------------------------------------------------------------------------------------------------------




----------------------------------------- Iteration    1(  11)  ---------------------------------------


    POTLOK:  cpu time    8.6257: real time    8.6471
    SETDIJ:  cpu time    0.1140: real time    0.1143
    TRIAL :  cpu time   20.2254: real time   20.3064
    CORREC:  cpu time   27.9418: real time   28.0414
    CHARGE:  cpu time    1.1816: real time    1.1859
    --------------------------------------------
      LOOP:  cpu time   58.1089: real time   58.3179

 eigenvalue-minimisations  :     0
 total energy-change (2. order) :-0.2545926E-04  (-0.1181104E-04)
 number of electron      30.0000000 magnetization 
 augmentation part        1.0667981 magnetization 

 Free energy of the ion-electron system (eV)
  ---------------------------------------------------
  alpha Z        PSCENC =         0.06064420
  Ewald energy   TEWEN  =      2287.36739259
  -Hartree energ DENC   =     -3043.33527835
  -exchange      EXHF   =       309.49129173
  -V(xc)+E(xc)   XCENC  =         0.00000000
  PAW double counting   =     14152.78856545   -14152.05317403
  entropy T*S    EENTRO =        -0.00000000
  eigenvalues    EBANDS =      -551.66711355
  atomic energy  EATOM  =       867.64802841
  ---------------------------------------------------
  free energy    TOTEN  =      -129.69964353 eV

  energy without entropy =     -129.69964353  energy(sigma->0) =     -129.69964353
  exchange ACFDT corr.  =        -0.00000000  see jH, gK, PRB 81, 115126


--------------------------------------------------------------------------------------------------------




----------------------------------------- Iteration    1(  12)  ---------------------------------------


    POTLOK:  cpu time    8.6383: real time    8.6597
    SETDIJ:  cpu time    0.1150: real time    0.1153
    TRIAL :  cpu time   20.2633: real time   20.6416
    CORREC:  cpu time   27.9558: real time   28.0560
    CHARGE:  cpu time    1.1796: real time    1.1838
    --------------------------------------------
      LOOP:  cpu time   58.1718: real time   58.6783

 eigenvalue-minimisations  :     0
 total energy-change (2. order) :-0.1181332E-04  (-0.5360014E-05)
 number of electron      30.0000000 magnetization 
 augmentation part        1.0667957 magnetization 

 Free energy of the ion-electron system (eV)
  ---------------------------------------------------
  alpha Z        PSCENC =         0.06064420
  Ewald energy   TEWEN  =      2287.36739259
  -Hartree energ DENC   =     -3043.33328584
  -exchange      EXHF   =       309.49028612
  -V(xc)+E(xc)   XCENC  =         0.00000000
  PAW double counting   =     14151.79147709   -14151.05601291
  entropy T*S    EENTRO =        -0.00000000
  eigenvalues    EBANDS =      -551.66818500
  atomic energy  EATOM  =       867.64802841
  ---------------------------------------------------
  free energy    TOTEN  =      -129.69965535 eV

  energy without entropy =     -129.69965535  energy(sigma->0) =     -129.69965535
  exchange ACFDT corr.  =         0.00000000  see jH, gK, PRB 81, 115126


--------------------------------------------------------------------------------------------------------




----------------------------------------- Iteration    1(  13)  ---------------------------------------


    POTLOK:  cpu time    8.6263: real time    8.6476
    SETDIJ:  cpu time    0.1141: real time    0.1144
    TRIAL :  cpu time   20.2504: real time   20.3323
    CORREC:  cpu time   27.9147: real time   28.0136
    CHARGE:  cpu time    1.1784: real time    1.1826
    --------------------------------------------
      LOOP:  cpu time   58.1043: real time   58.3129

 eigenvalue-minimisations  :     0
 total energy-change (2. order) :-0.5361534E-05  (-0.1845052E-05)
 number of electron      30.0000000 magnetization 
 augmentation part        1.0667510 magnetization 

 Free energy of the ion-electron system (eV)
  ---------------------------------------------------
  alpha Z        PSCENC =         0.06064420
  Ewald energy   TEWEN  =      2287.36739259
  -Hartree energ DENC   =     -3043.32739986
  -exchange      EXHF   =       309.48914504
  -V(xc)+E(xc)   XCENC  =         0.00000000
  PAW double counting   =     14149.75290246   -14149.01732492
  entropy T*S    EENTRO =        -0.00000000
  eigenvalues    EBANDS =      -551.67304863
  atomic energy  EATOM  =       867.64802841
  ---------------------------------------------------
  free energy    TOTEN  =      -129.69966071 eV

  energy without entropy =     -129.69966071  energy(sigma->0) =     -129.69966071
  exchange ACFDT corr.  =         0.00000000  see jH, gK, PRB 81, 115126


--------------------------------------------------------------------------------------------------------




----------------------------------------- Iteration    1(  14)  ---------------------------------------


    POTLOK:  cpu time    8.6278: real time    8.6492
    SETDIJ:  cpu time    0.1147: real time    0.1150
    TRIAL :  cpu time   20.2525: real time   20.3340
    CORREC:  cpu time   27.8938: real time   27.9932
    CHARGE:  cpu time    1.1799: real time    1.1841
    --------------------------------------------
      LOOP:  cpu time   58.0934: real time   58.3015

 eigenvalue-minimisations  :     0
 total energy-change (2. order) :-0.1845391E-05  (-0.6033062E-06)
 number of electron      30.0000000 magnetization 
 augmentation part        1.0667419 magnetization 

 Free energy of the ion-electron system (eV)
  ---------------------------------------------------
  alpha Z        PSCENC =         0.06064420
  Ewald energy   TEWEN  =      2287.36739259
  -Hartree energ DENC   =     -3043.32660494
  -exchange      EXHF   =       309.48910436
  -V(xc)+E(xc)   XCENC  =         0.00000000
  PAW double counting   =     14149.80064058   -14149.06504591
  entropy T*S    EENTRO =        -0.00000000
  eigenvalues    EBANDS =      -551.67382185
  atomic energy  EATOM  =       867.64802841
  ---------------------------------------------------
  free energy    TOTEN  =      -129.69966255 eV

  energy without entropy =     -129.69966255  energy(sigma->0) =     -129.69966255
  exchange ACFDT corr.  =        -0.00000000  see jH, gK, PRB 81, 115126


--------------------------------------------------------------------------------------------------------




----------------------------------------- Iteration    1(  15)  ---------------------------------------


    POTLOK:  cpu time    8.6442: real time    8.6656
    SETDIJ:  cpu time    0.1156: real time    0.1159
    TRIAL :  cpu time   20.2416: real time   20.3236
    CORREC:  cpu time   28.0281: real time   28.1279
    CHARGE:  cpu time    1.1862: real time    1.1903
    --------------------------------------------
      LOOP:  cpu time   58.2360: real time   58.4461

 eigenvalue-minimisations  :     0
 total energy-change (2. order) :-0.6033387E-06  (-0.2034465E-06)
 number of electron      30.0000000 magnetization 
 augmentation part        1.0667490 magnetization 

 Free energy of the ion-electron system (eV)
  ---------------------------------------------------
  alpha Z        PSCENC =         0.06064420
  Ewald energy   TEWEN  =      2287.36739259
  -Hartree energ DENC   =     -3043.33053459
  -exchange      EXHF   =       309.48952019
  -V(xc)+E(xc)   XCENC  =         0.00000000
  PAW double counting   =     14149.92414187   -14149.18854471
  entropy T*S    EENTRO =        -0.00000000
  eigenvalues    EBANDS =      -551.67031111
  atomic energy  EATOM  =       867.64802841
  ---------------------------------------------------
  free energy    TOTEN  =      -129.69966316 eV

  energy without entropy =     -129.69966316  energy(sigma->0) =     -129.69966316
  exchange ACFDT corr.  =         0.00000000  see jH, gK, PRB 81, 115126


--------------------------------------------------------------------------------------------------------




----------------------------------------- Iteration    1(  16)  ---------------------------------------


    POTLOK:  cpu time    8.6368: real time    8.6581
    SETDIJ:  cpu time    0.1137: real time    0.1140
    TRIAL :  cpu time   20.2735: real time   20.3551
    CORREC:  cpu time   28.0748: real time   28.1742
    CHARGE:  cpu time    1.1825: real time    1.1868
    --------------------------------------------
      LOOP:  cpu time   58.3050: real time   58.5143

 eigenvalue-minimisations  :     0
 total energy-change (2. order) :-0.2032559E-06  (-0.7844180E-07)
 number of electron      30.0000000 magnetization 
 augmentation part        1.0667517 magnetization 

 Free energy of the ion-electron system (eV)
  ---------------------------------------------------
  alpha Z        PSCENC =         0.06064420
  Ewald energy   TEWEN  =      2287.36739259
  -Hartree energ DENC   =     -3043.33284644
  -exchange      EXHF   =       309.48973659
  -V(xc)+E(xc)   XCENC  =         0.00000000
  PAW double counting   =     14149.91314185   -14149.17754124
  entropy T*S    EENTRO =        -0.00000000
  eigenvalues    EBANDS =      -551.66821932
  atomic energy  EATOM  =       867.64802841
  ---------------------------------------------------
  free energy    TOTEN  =      -129.69966336 eV

  energy without entropy =     -129.69966336  energy(sigma->0) =     -129.69966336
  exchange ACFDT corr.  =         0.00000000  see jH, gK, PRB 81, 115126


--------------------------------------------------------------------------------------------------------




----------------------------------------- Iteration    1(  17)  ---------------------------------------


    POTLOK:  cpu time    8.6316: real time    8.6529
    SETDIJ:  cpu time    0.1136: real time    0.1139
    TRIAL :  cpu time   20.2432: real time   20.3244
    CORREC:  cpu time   28.0364: real time   28.1361
    CHARGE:  cpu time    1.1868: real time    1.1911
    --------------------------------------------
      LOOP:  cpu time   58.2318: real time   58.4408

 eigenvalue-minimisations  :     0
 total energy-change (2. order) :-0.7823860E-07  (-0.2840336E-07)
 number of electron      30.0000000 magnetization 
 augmentation part        1.0667529 magnetization 

 Free energy of the ion-electron system (eV)
  ---------------------------------------------------
  alpha Z        PSCENC =         0.06064420
  Ewald energy   TEWEN  =      2287.36739259
  -Hartree energ DENC   =     -3043.33268696
  -exchange      EXHF   =       309.48972762
  -V(xc)+E(xc)   XCENC  =         0.00000000
  PAW double counting   =     14149.99025878   -14149.25466079
  entropy T*S    EENTRO =        -0.00000000
  eigenvalues    EBANDS =      -551.66836728
  atomic energy  EATOM  =       867.64802841
  ---------------------------------------------------
  free energy    TOTEN  =      -129.69966344 eV

  energy without entropy =     -129.69966344  energy(sigma->0) =     -129.69966344
  exchange ACFDT corr.  =         0.00000000  see jH, gK, PRB 81, 115126


--------------------------------------------------------------------------------------------------------


  average scaling for gradient   1.0391


 average (electrostatic) potential at core
  the test charge radii are     0.8471  0.6256
  (the norm of the test charge is              1.0000)
       1 -65.8968       2 -65.8973       3 -65.8969       4 -65.8968       5 -65.8973
       6 -65.8969       7 -20.9391       8 -20.9389       9 -20.9391      10 -20.9391
      11 -20.9389      12 -20.9391
 
 
 
 E-fermi :  -9.1040     XC(G=0):   0.0000     alpha+bet : -0.0192


 k-point     1 :       0.0000    0.0000    0.0000
  band No.  band energies     occupation 
      1     -31.3405      2.00000
      2     -27.6371      2.00000
      3     -27.6318      2.00000
      4     -22.4196      2.00000
      5     -22.4163      2.00000
      6     -19.2934      2.00000
      7     -17.4988      2.00000
      8     -16.8090      2.00000
      9     -15.9715      2.00000
     10     -15.9669      2.00000
     11     -13.6815      2.00000
     12     -13.4107      2.00000
     13     -13.4073      2.00000
     14      -9.1775      2.00000
     15      -9.1725      2.00000
     16       0.0156      0.00000
     17       0.1346      0.00000
     18       0.1369      0.00000
     19       0.1409      0.00000
     20       0.1917      0.00000
     21       0.1917      0.00000
     22       0.2232      0.00000
     23       2.2277      0.00000
     24       2.2283      0.00000


--------------------------------------------------------------------------------------------------------


 soft charge-density along one line, spin component           1
         0         1         2         3         4         5         6         7         8         9
 total charge-density along one line
 
 pseudopotential strength for first ion, spin component:           1
 17.322  20.387   0.000  -0.000   0.000   0.001  -0.000   0.000
 20.387  23.997   0.000  -0.000   0.000   0.001  -0.000   0.000
  0.000   0.000  -0.907  -0.000  -0.002  -0.837  -0.000  -0.003
 -0.000  -0.000  -0.000  -0.932  -0.000  -0.000  -0.870  -0.000
  0.000   0.000  -0.002  -0.000  -0.906  -0.003  -0.000  -0.836
  0.001   0.001  -0.837  -0.000  -0.003  -0.585  -0.000  -0.004
 -0.000  -0.000  -0.000  -0.870  -0.000  -0.000  -0.629  -0.000
  0.000   0.000  -0.003  -0.000  -0.836  -0.004  -0.000  -0.583
 total augmentation occupancy for first ion, spin component:           1
 21.689 -13.841  -1.679   0.007  -1.264   1.116  -0.004   0.840
-13.841   8.907   1.239  -0.005   0.932  -0.819   0.003  -0.616
 -1.679   1.239  16.369  -0.018  -1.012  -9.152   0.011   0.638
  0.007  -0.005  -0.018   7.375  -0.002   0.011  -3.768   0.001
 -1.264   0.932  -1.012  -0.002  16.968   0.638   0.001  -9.529
  1.116  -0.819  -9.152   0.011   0.638   5.135  -0.007  -0.400
 -0.004   0.003   0.011  -3.768   0.001  -0.007   1.929  -0.001
  0.840  -0.616   0.638   0.001  -9.529  -0.400  -0.001   5.371


------------------------ aborting loop because EDIFF is reached ----------------------------------------



 DIPCOR: dipole corrections for dipol
 direction  1 min pos   376, direction  2 min pos   381, direction  3 min pos   379,
 dipolmoment           0.000000     -0.000001      0.001415 electrons x Angstroem
 Tr[quadrupol]        18.632863

 energy correction for charged system         0.000000 eV
 dipol+quadrupol energy correction            0.000000 eV
 added-field ion interaction          0.000000 eV  (added to PSCEN)

 
  *************** adding dipol energy to TOTEN NOW **************** 
    FORLOC:  cpu time    0.8131: real time    0.8151
    FORHF :  cpu time   14.4318: real time   14.4678
    FORNL :  cpu time    0.5808: real time    0.5822
    OFIELD:  cpu time    0.0728: real time    0.0730

 VOLUME and BASIS-vectors are now :
 -----------------------------------------------------------------------------
  energy-cutoff  :     1000.00
  volume of cell :    42875.00
      direct lattice vectors                 reciprocal lattice vectors
    35.000000000  0.000000000  0.000000000     0.028571429  0.000000000  0.000000000
     0.000000000 35.000000000  0.000000000     0.000000000  0.028571429  0.000000000
     0.000000000  0.000000000 35.000000000     0.000000000  0.000000000  0.028571429

  length of vectors
    35.000000000 35.000000000 35.000000000     0.028571429  0.028571429  0.028571429


 FORCES acting on ions:
    Electron-Ion                     Ewald-Force                    Non-Local-Force
 -----------------------------------------------------------------------------------------------
   -.109E+03 -.145E+03 0.165E+00   0.108E+03 0.145E+03 -.179E+00   0.558E+00 0.720E+00 0.160E-01
   -.180E+03 0.217E+02 -.564E+00   0.179E+03 -.216E+02 0.557E+00   0.895E+00 -.110E+00 -.486E-02
   -.714E+02 0.167E+03 0.724E-01   0.712E+02 -.166E+03 -.853E-01   0.374E+00 -.829E+00 0.129E-01
   0.109E+03 0.145E+03 0.166E+00   -.108E+03 -.145E+03 -.180E+00   -.558E+00 -.720E+00 0.160E-01
   0.180E+03 -.217E+02 -.563E+00   -.179E+03 0.216E+02 0.556E+00   -.895E+00 0.110E+00 -.486E-02
   0.714E+02 -.167E+03 0.731E-01   -.712E+02 0.166E+03 -.860E-01   -.374E+00 0.829E+00 0.129E-01
   -.487E+02 -.649E+02 0.128E+00   0.523E+02 0.698E+02 -.137E+00   -.231E+01 -.308E+01 0.692E-02
   -.806E+02 0.968E+01 0.193E-01   0.866E+02 -.104E+02 -.213E-01   -.382E+01 0.459E+00 0.420E-02
   -.319E+02 0.746E+02 0.124E+00   0.343E+02 -.802E+02 -.133E+00   -.151E+01 0.354E+01 0.719E-02
   0.487E+02 0.649E+02 0.128E+00   -.523E+02 -.698E+02 -.137E+00   0.231E+01 0.308E+01 0.692E-02
   0.806E+02 -.968E+01 0.198E-01   -.866E+02 0.104E+02 -.218E-01   0.382E+01 -.459E+00 0.420E-02
   0.319E+02 -.746E+02 0.124E+00   -.343E+02 0.802E+02 -.133E+00   0.151E+01 -.354E+01 0.719E-02
 -----------------------------------------------------------------------------------------------
   -.940E-04 0.627E-03 -.108E+00   -.284E-13 -.284E-13 -.222E-15   0.000E+00 0.000E+00 0.846E-01
 
 
 POSITION                                       TOTAL-FORCE (eV/Angst)
 -----------------------------------------------------------------------------------
      0.83552      1.11517      0.02140        -0.111999     -0.180120      0.009681
      1.38327     34.83385      0.02377        -0.219494      0.023098     -0.024632
      0.54755     33.71868      0.02169        -0.063813      0.203855      0.004708
     34.16448     33.88484      0.02140         0.111999      0.180120      0.009681
     33.61672      0.16615      0.02376         0.219494     -0.023098     -0.024632
     34.45243      1.28132      0.02168         0.063813     -0.203855      0.004708
      1.48432      1.98061      0.01953        -0.153951     -0.205508      0.002238
      2.45715     34.70480      0.02277        -0.253577      0.030580      0.004925
      0.97294     32.72420      0.01978        -0.100936      0.236203      0.003080
     33.51567     33.01939      0.01953         0.153951      0.205508      0.002238
     32.54284      0.29521      0.02276         0.253577     -0.030580      0.004925
     34.02706      2.27581      0.01977         0.100936     -0.236203      0.003080
 -----------------------------------------------------------------------------------
    total drift:                               -0.000094      0.000627      0.000004


--------------------------------------------------------------------------------------------------------



  FREE ENERGIE OF THE ION-ELECTRON SYSTEM (eV)
  ---------------------------------------------------
  free  energy   TOTEN  =      -129.69966344 eV

  energy  without entropy=     -129.69966344  energy(sigma->0) =     -129.69966344
 


--------------------------------------------------------------------------------------------------------


    POTLOK:  cpu time    8.7579: real time    8.7793


--------------------------------------------------------------------------------------------------------


     LOOP+:  cpu time 1301.0308: real time 1306.3861
    4ORBIT:  cpu time    0.0000: real time    0.0000

 total amount of memory used by VASP on root node  1884759. kBytes
========================================================================

   base      :      30000. kBytes
   nonl-proj :      61570. kBytes
   fftplans  :     693297. kBytes
   grid      :    1044223. kBytes
   one-center:          3. kBytes
   HF        :          9. kBytes
   nonlr-proj:        244. kBytes
   wavefun   :      55413. kBytes
 
  
  
 General timing and accounting informations for this job:
 ========================================================
  
                  Total CPU time used (sec):     1678.849
                            User time (sec):     1507.972
                          System time (sec):      170.877
                         Elapsed time (sec):     1686.857
  
                   Maximum memory used (kb):     2579556.
                   Average memory used (kb):           0.
  
                          Minor page faults:       324109
                          Major page faults:            0
                 Voluntary context switches:       153239
 
 PROFILE, used timers:      34
 =============================
 
 index                 routine                    time                            calls level
----------------------------------------------------------------------------------------------
    1    total_time                         1686.857778                                1   1
    2      w1_copy                               0.192834                            374   2
    3      fftwav_mpi                           37.620072                            368   2
    4      fftext_mpi                            0.425376                              6   2
    5      overl                                 0.000212                            171   2
    6      orth1                                 0.181138                             86   2
    7      lincom                                0.372626                            103   2
    8      fock_acc                            293.394741                             51   2
    9        w1_copy                               0.225542                          306   3
   10        fftwav_mpi                           14.916628                          306   3
   11        fock_charge_mu                       16.782352                          204   3
   12          racc0mu_hf                            0.593097                        204   4
   13        rpromu_hf                             0.560117                          204   3
   14        overl1                                0.000079                          102   3
   15        fftext_mpi                            4.129647                          102   3
   16      hamilt_local                         11.220307                            102   2
   17        vhamil                                2.457841                          102   3
   18        kinhamil                              8.762239                          102   3
   19          fftext_mpi                            8.696062                        102   4
   20      eccp                                  6.059273                            306   2
   21      w1_dscal                              1.161782                            102   2
   22      pdssyex_zheevx                        0.418602                             34   2
   23      eddiag                              306.870244                             17   2
   24        fock_acc                            294.765936                           51   3
   25          w1_copy                               0.195977                        306   4
   26          fftwav_mpi                           15.260797                        306   4
   27          fock_charge_mu                       16.753265                        204   4
   28            racc0mu_hf                            0.579280                      204   5
   29          rpromu_hf                             0.588653                        204   4
   30          overl1                                0.000087                        102   4
   31          fftext_mpi                            4.186624                        102   4
   32        fftwav_mpi                           10.069432                          102   3
   33        eccp                                  1.719037                          102   3
   34      rpro1_hf                              0.353008                            384   2
 
 Flat profile
 ============
 
             routine name                   CPU           calls
 ---------------------------------------------------------------
 total_time                           1028.587562           1
 fock_acc                              514.560909         102
 fftwav_mpi                             77.866928        1082
 fock_charge_mu                         32.363240         408
 fftext_mpi                             17.437709         312
 eccp                                    7.778311         408
 vhamil                                  2.457841         102
 racc0mu_hf                              1.172377         408
 w1_dscal                                1.161782         102
 rpromu_hf                               1.148770         408
 w1_copy                                 0.614353         986
 pdssyex_zheevx                          0.418602          34
 lincom                                  0.372626         103
 rpro1_hf                                0.353008         384
 eddiag                                  0.315839          17
 orth1                                   0.181138          86
 kinhamil                                0.066177         102
 hamilt_local                            0.000226         102
 overl                                   0.000212         171
 overl1                                  0.000166         204
 ---------------------------------------------------------------
  summed up times    1686.85777807236     
 
Profiling took   0.006563  0.004106  0.003272  0.003251 seconds
Profiling took   0.002522 seconds
