 vasp.5.4.1 24Jun15 (build Jan 02 2020 16:21:29) gamma-only                     
  
 executed on           IFC15_impi date 2020.08.27  21:38:13
 running on   32 total cores
 distrk:  each k-point on   32 cores,    1 groups
 distr:  one band on NCORES_PER_BAND=   8 cores,    4 groups


--------------------------------------------------------------------------------------------------------


 INCAR:
 POTCAR:    PAW_PBE C_s 06Sep2000                 
 POTCAR:    PAW_PBE H_s 15May2010                 
 POTCAR:    PAW_PBE C_s 06Sep2000                 
   VRHFIN =C: s2p2                                                              
   LEXCH  = PE                                                                  
   EATOM  =   147.1560 eV,   10.8157 Ry                                         
                                                                                
   TITEL  = PAW_PBE C_s 06Sep2000                                               
   LULTRA =        F    use ultrasoft PP ?                                      
   IUNSCR =        0    unscreen: 0-lin 1-nonlin 2-no                           
   RPACOR =    0.000    partial core radius                                     
   POMASS =   12.011; ZVAL   =    4.000    mass and valenz                      
   RCORE  =    1.850    outmost cutoff radius                                   
   RWIGS  =    1.890; RWIGS  =    1.000    wigner-seitz radius (au A)           
   ENMAX  =  273.911; ENMIN  =  205.433 eV                                      
   RCLOC  =    0.804    cutoff for local pot                                    
   LCOR   =        T    correct aug charges                                     
   LPAW   =        T    paw PP                                                  
   EAUG   =  439.243                                                            
   DEXC   =    0.000                                                            
   RMAX   =    1.897    core radius for proj-oper                               
   RAUG   =    1.300    factor for augmentation sphere                          
   RDEP   =    1.940    radius for radial grids                                 
   RDEPT  =    1.573    core radius for aug-charge                              
                                                                                
   Atomic configuration                                                         
    4 entries                                                                   
     n  l   j            E        occ.                                          
     1  0  0.50      -273.3789   2.0000                                         
     2  0  0.50       -13.7508   2.0000                                         
     2  1  0.50        -5.2854   2.0000                                         
     3  2  1.50        -1.3606   0.0000                                         
   Description                                                                  
     l       E           TYP  RCUT    TYP  RCUT                                 
     0    -13.7508457     23  1.500                                             
     0    -11.0934578     23  1.500                                             
     1     -5.2854381     23  1.850                                             
     1     -1.3099858     23  1.850                                             
  local pseudopotential read in
  atomic valenz-charges read in
  non local Contribution for L=           0  read in
    real space projection operators read in
  non local Contribution for L=           0  read in
    real space projection operators read in
  non local Contribution for L=           1  read in
    real space projection operators read in
  non local Contribution for L=           1  read in
    real space projection operators read in
    PAW grid and wavefunctions read in
 
   number of l-projection  operators is LMAX  =           4
   number of lm-projection operators is LMMAX =           8
 
 POTCAR:    PAW_PBE H_s 15May2010                 
   VRHFIN =H: ultrasoft test                                                    
   LEXCH  = PE                                                                  
   EATOM  =    12.4884 eV,    0.9179 Ry                                         
                                                                                
   TITEL  = PAW_PBE H_s 15May2010                                               
   LULTRA =        F    use ultrasoft PP ?                                      
   IUNSCR =        0    unscreen: 0-lin 1-nonlin 2-no                           
   RPACOR =    0.000    partial core radius                                     
   POMASS =    1.000; ZVAL   =    1.000    mass and valenz                      
   RCORE  =    1.300    outmost cutoff radius                                   
   RWIGS  =    0.700; RWIGS  =    0.370    wigner-seitz radius (au A)           
   ENMAX  =  200.000; ENMIN  =  150.000 eV                                      
   RCLOC  =    0.701    cutoff for local pot                                    
   LCOR   =        T    correct aug charges                                     
   LPAW   =        T    paw PP                                                  
   EAUG   =  300.000                                                            
   RMAX   =    1.330    core radius for proj-oper                               
   RAUG   =    1.200    factor for augmentation sphere                          
   RDEP   =    1.337    radius for radial grids                                 
   RDEPT  =    1.114    core radius for aug-charge                              
                                                                                
   Atomic configuration                                                         
    2 entries                                                                   
     n  l   j            E        occ.                                          
     1  0  0.50        -6.4927   1.0000                                         
     2  1  0.50        -3.4015   0.0000                                         
   Description                                                                  
     l       E           TYP  RCUT    TYP  RCUT                                 
     0     -6.4927494     23  1.300                                             
     0      6.8029130     23  1.300                                             
     1     -4.0817478     23  1.300                                             
  local pseudopotential read in
  atomic valenz-charges read in
  non local Contribution for L=           0  read in
    real space projection operators read in
  non local Contribution for L=           0  read in
    real space projection operators read in
  non local Contribution for L=           1  read in
    real space projection operators read in
    PAW grid and wavefunctions read in
 
   number of l-projection  operators is LMAX  =           3
   number of lm-projection operators is LMMAX =           5
 
  PAW_PBE C_s 06Sep2000                 :
 energy of atom  1       EATOM= -147.1560
 kinetic energy error for atom=    0.0002 (will be added to EATOM!!)
  PAW_PBE H_s 15May2010                 :
 energy of atom  2       EATOM=  -12.4884
 kinetic energy error for atom=    0.0000 (will be added to EATOM!!)
 
 
 POSCAR: C H                                     
  positions in cartesian coordinates
  No initial velocities read in
 exchange correlation table for  LEXCH =        8
   RHO(1)=    0.500       N(1)  =     2000
   RHO(2)=  100.500       N(2)  =     4000
 


--------------------------------------------------------------------------------------------------------


 ion  position               nearest neighbor table
   1  0.022  0.983  0.965-   7 1.08   2 1.39   6 1.39
   2  0.014  0.021  0.965-   8 1.08   1 1.39   3 1.39
   3  0.009  0.041  0.000-   9 1.08   2 1.39   4 1.39
   4  0.014  0.021  0.035-  10 1.08   5 1.39   3 1.39
   5  0.022  0.983  0.035-  11 1.08   4 1.39   6 1.39
   6  0.027  0.963  0.000-  12 1.08   5 1.39   1 1.39
   7  0.026  0.967  0.939-   1 1.08
   8  0.010  0.037  0.939-   2 1.08
   9  0.003  0.071  0.000-   3 1.08
  10  0.010  0.037  0.061-   4 1.08
  11  0.026  0.967  0.061-   5 1.08
  12  0.033  0.933  0.000-   6 1.08
 
  LATTYP: Found a simple cubic cell.
 ALAT       =    35.0000000000
  
  Lattice vectors:
  
 A1 = (  35.0000000000,   0.0000000000,   0.0000000000)
 A2 = (   0.0000000000,  35.0000000000,   0.0000000000)
 A3 = (   0.0000000000,   0.0000000000,  35.0000000000)


Analysis of symmetry for initial positions (statically):
=====================================================================
 Subroutine PRICEL returns:
 Original cell was already a primitive cell.
 

 Routine SETGRP: Setting up the symmetry group for a 
 simple cubic supercell.


 Subroutine GETGRP returns: Found  2 space group operations
 (whereof  2 operations were pure point group operations)
 out of a pool of 48 trial point group operations.


The static configuration has the point symmetry C_1h.


Analysis of symmetry for dynamics (positions and initial velocities):
=====================================================================
 Subroutine PRICEL returns:
 Original cell was already a primitive cell.
 

 Routine SETGRP: Setting up the symmetry group for a 
 simple cubic supercell.


 Subroutine GETGRP returns: Found  2 space group operations
 (whereof  2 operations were pure point group operations)
 out of a pool of 48 trial point group operations.


The dynamic configuration has the point symmetry C_1h.
 
 
 KPOINTS: automatic mesh                          

Automatic generation of k-mesh.
Space group operators:
 irot       det(A)        alpha          n_x          n_y          n_z        tau_x        tau_y        tau_z
    1     1.000000     0.000000     1.000000     0.000000     0.000000     0.000000     0.000000     0.000000
    2    -1.000000   180.000000     0.000000     0.000000     1.000000     0.000000     0.000000     0.000000
 
 Subroutine IBZKPT returns following result:
 ===========================================
 
 Found      1 irreducible k-points:
 
 Following reciprocal coordinates:
            Coordinates               Weight
  0.000000  0.000000  0.000000      1.000000
 
 Following cartesian coordinates:
            Coordinates               Weight
  0.000000  0.000000  0.000000      1.000000
 
 
 Subroutine IBZKPT_HF returns following result:
 ==============================================
 
 Found      1 k-points in 1st BZ
 the following      1 k-points will be used (e.g. in the exchange kernel)
 Following reciprocal coordinates:   # in IRBZ
  0.000000  0.000000  0.000000    1.00000000   1 t-inv F


--------------------------------------------------------------------------------------------------------




 Dimension of arrays:
   k-points           NKPTS =      1   k-points in BZ     NKDIM =      1   number of bands    NBANDS=     24
   number of dos      NEDOS =    301   number of ions     NIONS =     12
   non local maximal  LDIM  =      4   non local SUM 2l+1 LMDIM =      8
   total plane-waves  NPLWV = ******
   max r-space proj   IRMAX =      1   max aug-charges    IRDMAX=  26641
   dimension x,y,z NGX =   378 NGY =  378 NGZ =  378
   dimension x,y,z NGXF=   756 NGYF=  756 NGZF=  756
   support grid    NGXF=   756 NGYF=  756 NGZF=  756
   ions per type =               6   6
 NGX,Y,Z   is equivalent  to a cutoff of  17.95, 17.95, 17.95 a.u.
 NGXF,Y,Z  is equivalent  to a cutoff of  35.91, 35.91, 35.91 a.u.


 I would recommend the setting:
   dimension x,y,z NGX =   361 NGY =  361 NGZ =  361
 SYSTEM =  C                                       
 POSCAR =  C H                                     

 Startparameter for this run:
   NWRITE =      2    write-flag & timer
   PREC   = accura    normal or accurate (medium, high low for compatibility)
   ISTART =      1    job   : 0-new  1-cont  2-samecut
   ICHARG =      0    charge: 1-file 2-atom 10-const
   ISPIN  =      1    spin polarized calculation?
   LNONCOLLINEAR =      F non collinear calculations
   LSORBIT =      F    spin-orbit coupling
   INIWAV =      1    electr: 0-lowe 1-rand  2-diag
   LASPH  =      T    aspherical Exc in radial PAW
   METAGGA=      F    non-selfconsistent MetaGGA calc.

 Electronic Relaxation 1
   ENCUT  = 1000.0 eV  73.50 Ry    8.57 a.u.  90.25 90.25 90.25*2*pi/ulx,y,z
   ENINI  = 1000.0     initial cutoff
   ENAUG  =  439.2 eV  augmentation charge cutoff
   NELM   =     60;   NELMIN=  2; NELMDL=  0     # of ELM steps 
   EDIFF  = 0.1E-06   stopping-criterion for ELM
   LREAL  =      F    real-space projection
   NLSPLINE    = F    spline interpolate recip. space projectors
   LCOMPAT=      F    compatible to vasp.4.4
   GGA_COMPAT  = T    GGA compatible to vasp.4.4-vasp.4.6
   LMAXPAW     = -100 max onsite density
   LMAXMIX     =    2 max onsite mixed and CHGCAR
   VOSKOWN=      0    Vosko Wilk Nusair interpolation
   ROPT   =    0.00000   0.00000
 Ionic relaxation
   EDIFFG = 0.1E-05   stopping-criterion for IOM
   NSW    =      0    number of steps for IOM
   NBLOCK =      1;   KBLOCK =      1    inner block; outer block 
   IBRION =     -1    ionic relax: 0-MD 1-quasi-New 2-CG
   NFREE  =      0    steps in history (QN), initial steepest desc. (CG)
   ISIF   =      0    stress and relaxation
   IWAVPR =     10    prediction:  0-non 1-charg 2-wave 3-comb
   ISYM   =      3    0-nonsym 1-usesym 2-fastsym
   LCORR  =      T    Harris-Foulkes like correction to forces

   POTIM  = 0.5000    time-step for ionic-motion
   TEIN   =    0.0    initial temperature
   TEBEG  =    0.0;   TEEND  =   0.0 temperature during run
   SMASS  =  -3.00    Nose mass-parameter (am)
   estimated Nose-frequenzy (Omega)   =  0.10E-29 period in steps =****** mass=  -0.280E-25a.u.
   SCALEE = 1.0000    scale energy and forces
   NPACO  =    256;   APACO  = 16.0  distance and # of slots for P.C.
   PSTRESS=    0.0 pullay stress

  Mass of Ions in am
   POMASS =  12.01  1.00
  Ionic Valenz
   ZVAL   =   4.00  1.00
  Atomic Wigner-Seitz radii
   RWIGS  =  -1.00 -1.00
  virtual crystal weights 
   VCA    =   1.00  1.00
   NELECT =      30.0000    total number of electrons
   NUPDOWN=      -1.0000    fix difference up-down

 DOS related values:
   EMIN   =  10.00;   EMAX   =-10.00  energy-range for DOS
   EFERMI =   0.00
   ISMEAR =     0;   SIGMA  =   0.01  broadening in eV -4-tet -1-fermi 0-gaus

 Electronic relaxation 2 (details)
   IALGO  =     58    algorithm
   LDIAG  =      T    sub-space diagonalisation (order eigenvalues)
   LSUBROT=      F    optimize rotation matrix (better conditioning)
   TURBO    =      0    0=normal 1=particle mesh
   IRESTART =      0    0=no restart 2=restart with 2 vectors
   NREBOOT  =      0    no. of reboots
   NMIN     =      0    reboot dimension
   EREF     =   0.00    reference energy to select bands
   IMIX   =      4    mixing-type and parameters
     AMIX     =   0.40;   BMIX     =  1.00
     AMIX_MAG =   1.60;   BMIX_MAG =  1.00
     AMIN     =   0.10
     WC   =   100.;   INIMIX=   1;  MIXPRE=   1;  MAXMIX= -45

 Intra band minimization:
   WEIMIN = 0.0000     energy-eigenvalue tresh-hold
   EBREAK =  0.10E-08  absolut break condition
   DEPER  =   0.30     relativ break condition  

   TIME   =   0.40     timestep for ELM

  volume/ion in A,a.u.               =    3572.92     24111.23
  Fermi-wavevector in a.u.,A,eV,Ry     =   0.145338  0.274650  0.287399  0.021123
  Thomas-Fermi vector in A             =   0.812913
 
 Write flags
   LWAVE  =      F    write WAVECAR
   LCHARG =      T    write CHGCAR
   LVTOT  =      F    write LOCPOT, total local potential
   LVHAR  =      F    write LOCPOT, Hartree potential only
   LELF   =      F    write electronic localiz. function (ELF)
   LORBIT =      0    0 simple, 1 ext, 2 COOP (PROOUT)


 Dipole corrections
   LMONO  =      F    monopole corrections only (constant potential shift)
   LDIPOL =      F    correct potential (dipole corrections)
   IDIPOL =      4    1-x, 2-y, 3-z, 4-all directions 
   EPSILON=  1.0000000 bulk dielectric constant

 Exchange correlation treatment:
   GGA     =    --    GGA type
   LEXCH   =     8    internal setting for exchange type
   VOSKOWN=      0    Vosko Wilk Nusair interpolation
   EXXOEP  =     0    0=HF, 1=EXX-LHF (local Hartree Fock) 2=EXX OEP
   LHFCALC =     T    Hartree Fock is set to
   LSYMGRAD=     F    symmetrize gradient (conserves proper symmetry)
   PRECFOCK=normal    Normal, Fast or Accurate (Low or Medium for compatibility)
   LRHFCALC=     F    long range Hartree Fock
   LRSCOR  =     F    long range correlation only (use DFT for short range part)
   LTHOMAS =     F    Thomas Fermi screening in HF
   LMODELHF=     F    short range full HF, long range fraction AEXX
   ENCUT4O =  -1.0   cutoff for four orbital integrals eV
   LMAXFOCK=     4    L truncation for augmentation on plane wave grid
   LMAXFOCKAE=  -1    L truncation for all-electron charge restoration on plane wave grid
   NMAXFOCKAE=   1    number of basis functions for all-electron charge restoration
   LFOCKAEDFT=     F  apply the AE augmentation even for DFT
   NKREDX  =     1    reduce k-point grid by
   NKREDY  =     1    reduce k-point grid by
   NKREDZ  =     1    reduce k-point grid by
   SHIFTRED=     F    shift reduced grid of Gamma
   HFKIDENT=     F    idential grid for each k-point
   ODDONLY =     F    use only odd q-grid points
   EVENONLY=     F    use only even q-grid points
   HFALPHA =   -1.0000 decay constant for conv. correction
   MCALPHA =    0.0000 extent of test-charge in conv. correction in multipole expansion
   AEXX    =    1.0000 exact exchange contribution
   HFSCREEN=    0.0000 screening length (either q_TF or 0.3 A-1)
   HFSCREENC=   0.0000 screening length for correlation (either q_TF or 0.3 A-1)
   HFRCUT  =    0.0000 spherical cutoff for potential kernel
   ALDAX   =    0.0000 LDA exchange part
   AGGAX   =    0.0000 GGA exchange part
   ALDAC   =    0.0000 LDA correlation
   AGGAC   =    0.0000 GGA correlation
   NBANDSGWLOW=     1    first orbital included in HF term
   ENCUTFOCK=  -1.0 apply spherical cutoff to Coloumb kernel
 Linear response parameters
   LEPSILON=     F    determine dielectric tensor
   LRPA    =     F    only Hartree local field effects (RPA)
   LNABLA  =     F    use nabla operator in PAW spheres
   LVEL    =     F    velocity operator in full k-point grid
   LINTERFAST=   F  fast interpolation
   KINTER  =     0    interpolate to denser k-point grid
   CSHIFT  =0.1000    complex shift for real part using Kramers Kronig
   OMEGAMAX=  -1.0    maximum frequency
   DEG_THRESHOLD= 0.2000000E-02 threshold for treating states as degnerate
   RTIME   =    0.100 relaxation time in fs

 Orbital magnetization related:
   ORBITALMAG=     F  switch on orbital magnetization
   LCHIMAG   =     F  perturbation theory with respect to B field
   DQ        =  0.001000  dq finite difference perturbation B field



--------------------------------------------------------------------------------------------------------


 Static calculation
 charge density and potential will be updated during run
 non-spin polarized calculation
 Conjugate gradient for all bands (Freysoldt, et al. PRB 79, 241103 (2009))
 preconditioned conjugated gradient                                        
 perform sub-space diagonalisation
    before iterative eigenvector-optimisation
 modified Broyden-mixing scheme, WC =      100.0
 initial mixing is a Kerker type mixing with AMIX =  0.4000 and BMIX =      1.0000
 Hartree-type preconditioning will be used
 using additional bands            9
 reciprocal scheme for non local part
 no Harris-corrections to forces 
 use gradient corrections 
 use of overlap-Matrix (Vanderbilt PP)
 Gauss-broadening in eV      SIGMA  =   0.01


--------------------------------------------------------------------------------------------------------


  energy-cutoff  :     1000.00
  volume of cell :    42875.00
      direct lattice vectors                 reciprocal lattice vectors
    35.000000000  0.000000000  0.000000000     0.028571429  0.000000000  0.000000000
     0.000000000 35.000000000  0.000000000     0.000000000  0.028571429  0.000000000
     0.000000000  0.000000000 35.000000000     0.000000000  0.000000000  0.028571429

  length of vectors
    35.000000000 35.000000000 35.000000000     0.028571429  0.028571429  0.028571429


 
 old parameters found on file WAVECAR:
  energy-cutoff  :     1000.00
  volume of cell :    42875.00
      direct lattice vectors                 reciprocal lattice vectors
    35.000000000  0.000000000  0.000000000     0.028571429  0.000000000  0.000000000
     0.000000000 35.000000000  0.000000000     0.000000000  0.028571429  0.000000000
     0.000000000  0.000000000 35.000000000     0.000000000  0.000000000  0.028571429

  length of vectors

 
 k-points in units of 2pi/SCALE and weight: automatic mesh                          
   0.00000000  0.00000000  0.00000000       1.000
 
 k-points in reciprocal lattice and weights: automatic mesh                          
   0.00000000  0.00000000  0.00000000       1.000
 
 position of ions in fractional coordinates (direct lattice) 
   0.02228992  0.98257386  0.96549837
   0.01365551  0.02145696  0.96548870
   0.00935112  0.04091051  0.00000000
   0.01365551  0.02145696  0.03451130
   0.02228992  0.98257386  0.03450163
   0.02661852  0.96314339  0.00000000
   0.02560547  0.96749601  0.93873873
   0.01019898  0.03651908  0.93874131
   0.00261329  0.07106112  0.00000000
   0.01019898  0.03651908  0.06125869
   0.02560547  0.96749601  0.06126127
   0.03338531  0.93299389  0.00000000
 
 position of ions in cartesian coordinates  (Angst):
   0.78014717 34.39008527 33.79244311
   0.47794275  0.75099363 33.79210459
   0.32728928  1.43186787  0.00000000
   0.47794275  0.75099363  1.20789541
   0.78014717 34.39008527  1.20755689
   0.93164831 33.71001866  0.00000000
   0.89619159 33.86236041 32.85585538
   0.35696423  1.27816780 32.85594593
   0.09146503  2.48713922  0.00000000
   0.35696423  1.27816780  2.14405407
   0.89619159 33.86236041  2.14414462
   1.16848573 32.65478631  0.00000000
 


--------------------------------------------------------------------------------------------------------


 use parallel FFT for wavefunctions z direction half grid
 k-point  1 :   0.0000 0.0000 0.0000  plane waves: 1539209

 maximum and minimum number of plane-waves per node :    192406   192397

 maximum number of plane-waves:   1539209
 maximum index in each direction: 
   IXMAX=   90   IYMAX=   90   IZMAX=   90
   IXMIN=  -90   IYMIN=  -90   IZMIN=    0

 NGX is ok and might be reduce to 362
 NGY is ok and might be reduce to 362
 NGZ is ok and might be reduce to 362

 parallel 3D FFT for wavefunctions:
    minimum data exchange during FFTs selected (reduces bandwidth)
 parallel 3D FFT for charge:
    minimum data exchange during FFTs selected (reduces bandwidth)


 FFT grid for exact exchange (Hartree Fock) 
  NGX =280; NGY =280; NGZ =280

 use parallel FFT for wavefunctions z direction half grid
 
 Radii for the augmentation spheres in the non-local exchange
 for species   1 augmentation radius   1.059 (default was   0.847)
       energy cutoff for augmentation   4000.0
 for species   2 augmentation radius   0.782 (default was   0.626)
       energy cutoff for augmentation   4000.0

 real space projection operators:
  total allocation   :       1509.75 KBytes
  max/ min on nodes  :        191.11        187.10

 Maximum index for augmentation-charges in exchange          349
  SETUP_FOCK is finished

 total amount of memory used by VASP on root node  1884748. kBytes
========================================================================

   base      :      30000. kBytes
   nonl-proj :      61570. kBytes
   fftplans  :     693297. kBytes
   grid      :    1044223. kBytes
   one-center:          3. kBytes
   HF        :          9. kBytes
   nonlr-proj:        233. kBytes
   wavefun   :      55413. kBytes
 
     INWAV:  cpu time    1.8087: real time    1.8511
 Broyden mixing: mesh for mixing (old mesh)
   NGX =181   NGY =181   NGZ =181
  (NGX  =756   NGY  =756   NGZ  =756)
  gives a total of ****** points

 charge density for first step will be calculated from the start-wavefunctions


--------------------------------------------------------------------------------------------------------


 Maximum index for augmentation-charges          885 (set IRDMAX)


--------------------------------------------------------------------------------------------------------


 initial charge from wavefunction
 FEWALD executed in parallel
    FEWALD:  cpu time    0.0086: real time    0.0086


----------------------------------------- Iteration    1(   1)  ---------------------------------------


    POTLOK:  cpu time    7.9816: real time    8.0045
    SETDIJ:  cpu time    0.0529: real time    0.0530
    TRIAL :  cpu time   20.1411: real time   20.2231
    CORREC:  cpu time   27.2124: real time   27.3105
    CHARGE:  cpu time    1.1760: real time    1.1803
    --------------------------------------------
      LOOP:  cpu time   56.6122: real time   56.8210

 eigenvalue-minimisations  :     0
 total energy-change (2. order) :-0.1285627E+03  (-0.7739283E+00)
 number of electron      30.0000001 magnetization 
 augmentation part        1.0082903 magnetization 

 Free energy of the ion-electron system (eV)
  ---------------------------------------------------
  alpha Z        PSCENC =         0.06064420
  Ewald energy   TEWEN  =      2286.01574665
  -Hartree energ DENC   =     -3052.89792692
  -exchange      EXHF   =       308.50126504
  -V(xc)+E(xc)   XCENC  =         0.00000000
  PAW double counting   =      9779.65190695    -9778.69576355
  entropy T*S    EENTRO =        -0.00000000
  eigenvalues    EBANDS =      -538.84663709
  atomic energy  EATOM  =       867.64802841
  ---------------------------------------------------
  free energy    TOTEN  =      -128.56273630 eV

  energy without entropy =     -128.56273630  energy(sigma->0) =     -128.56273630
  exchange ACFDT corr.  =         0.00000000  see jH, gK, PRB 81, 115126


--------------------------------------------------------------------------------------------------------




----------------------------------------- Iteration    1(   2)  ---------------------------------------


    POTLOK:  cpu time    7.9879: real time    8.0077
    SETDIJ:  cpu time    0.0527: real time    0.0528
    TRIAL :  cpu time   20.1321: real time   20.2133
    CORREC:  cpu time   27.3119: real time   27.4095
    CHARGE:  cpu time    1.1817: real time    1.1859
    --------------------------------------------
      LOOP:  cpu time   56.6719: real time   56.8776

 eigenvalue-minimisations  :     0
 total energy-change (2. order) :-0.7724132E+00  (-0.2871533E+00)
 number of electron      30.0000001 magnetization 
 augmentation part        1.0458914 magnetization 

 Free energy of the ion-electron system (eV)
  ---------------------------------------------------
  alpha Z        PSCENC =         0.06064420
  Ewald energy   TEWEN  =      2286.01574665
  -Hartree energ DENC   =     -3036.59775270
  -exchange      EXHF   =       307.95669972
  -V(xc)+E(xc)   XCENC  =         0.00000000
  PAW double counting   =     14486.66647365   -14485.91228032
  entropy T*S    EENTRO =        -0.00000000
  eigenvalues    EBANDS =      -555.17270910
  atomic energy  EATOM  =       867.64802841
  ---------------------------------------------------
  free energy    TOTEN  =      -129.33514948 eV

  energy without entropy =     -129.33514948  energy(sigma->0) =     -129.33514948
  exchange ACFDT corr.  =         0.00000000  see jH, gK, PRB 81, 115126


--------------------------------------------------------------------------------------------------------




----------------------------------------- Iteration    1(   3)  ---------------------------------------


    POTLOK:  cpu time    8.6422: real time    8.6636
    SETDIJ:  cpu time    0.1141: real time    0.1144
    TRIAL :  cpu time   20.6564: real time   20.7376
    CORREC:  cpu time   27.9671: real time   28.0637
    CHARGE:  cpu time    1.1814: real time    1.1854
    --------------------------------------------
      LOOP:  cpu time   58.5832: real time   58.7896

 eigenvalue-minimisations  :     0
 total energy-change (2. order) :-0.2880737E+00  (-0.5259387E-01)
 number of electron      30.0000001 magnetization 
 augmentation part        1.0635135 magnetization 

 Free energy of the ion-electron system (eV)
  ---------------------------------------------------
  alpha Z        PSCENC =         0.06064420
  Ewald energy   TEWEN  =      2286.01574665
  -Hartree energ DENC   =     -3044.97270050
  -exchange      EXHF   =       309.48628446
  -V(xc)+E(xc)   XCENC  =         0.00000000
  PAW double counting   =     14023.74050815   -14022.98131574
  entropy T*S    EENTRO =        -0.00000000
  eigenvalues    EBANDS =      -548.62041878
  atomic energy  EATOM  =       867.64802841
  ---------------------------------------------------
  free energy    TOTEN  =      -129.62322315 eV

  energy without entropy =     -129.62322315  energy(sigma->0) =     -129.62322315
  exchange ACFDT corr.  =         0.00000000  see jH, gK, PRB 81, 115126


--------------------------------------------------------------------------------------------------------




----------------------------------------- Iteration    1(   4)  ---------------------------------------


    POTLOK:  cpu time    8.6439: real time    8.6654
    SETDIJ:  cpu time    0.1130: real time    0.1133
    TRIAL :  cpu time   20.5069: real time   20.5858
    CORREC:  cpu time   28.0036: real time   28.1009
    CHARGE:  cpu time    1.1782: real time    1.1821
    --------------------------------------------
      LOOP:  cpu time   58.4661: real time   58.6705

 eigenvalue-minimisations  :     0
 total energy-change (2. order) :-0.5260354E-01  (-0.1540018E-01)
 number of electron      30.0000001 magnetization 
 augmentation part        1.0622387 magnetization 

 Free energy of the ion-electron system (eV)
  ---------------------------------------------------
  alpha Z        PSCENC =         0.06064420
  Ewald energy   TEWEN  =      2286.01574665
  -Hartree energ DENC   =     -3040.24544288
  -exchange      EXHF   =       309.06850168
  -V(xc)+E(xc)   XCENC  =         0.00000000
  PAW double counting   =     13805.24572902   -13804.49733469
  entropy T*S    EENTRO =        -0.00000000
  eigenvalues    EBANDS =      -552.97169908
  atomic energy  EATOM  =       867.64802841
  ---------------------------------------------------
  free energy    TOTEN  =      -129.67582669 eV

  energy without entropy =     -129.67582669  energy(sigma->0) =     -129.67582669
  exchange ACFDT corr.  =         0.00000000  see jH, gK, PRB 81, 115126


--------------------------------------------------------------------------------------------------------




----------------------------------------- Iteration    1(   5)  ---------------------------------------


    POTLOK:  cpu time    8.6392: real time    8.6607
    SETDIJ:  cpu time    0.1136: real time    0.1139
    TRIAL :  cpu time   20.4696: real time   20.5489
    CORREC:  cpu time   27.9512: real time   28.0479
    CHARGE:  cpu time    1.1793: real time    1.1834
    --------------------------------------------
      LOOP:  cpu time   58.3744: real time   58.5791

 eigenvalue-minimisations  :     0
 total energy-change (2. order) :-0.1541096E-01  (-0.4093166E-02)
 number of electron      30.0000001 magnetization 
 augmentation part        1.0638208 magnetization 

 Free energy of the ion-electron system (eV)
  ---------------------------------------------------
  alpha Z        PSCENC =         0.06064420
  Ewald energy   TEWEN  =      2286.01574665
  -Hartree energ DENC   =     -3040.88700670
  -exchange      EXHF   =       309.23906549
  -V(xc)+E(xc)   XCENC  =         0.00000000
  PAW double counting   =     14027.59956281   -14026.86061901
  entropy T*S    EENTRO =        -0.00000000
  eigenvalues    EBANDS =      -552.50665950
  atomic energy  EATOM  =       867.64802841
  ---------------------------------------------------
  free energy    TOTEN  =      -129.69123765 eV

  energy without entropy =     -129.69123765  energy(sigma->0) =     -129.69123765
  exchange ACFDT corr.  =         0.00000000  see jH, gK, PRB 81, 115126


--------------------------------------------------------------------------------------------------------




----------------------------------------- Iteration    1(   6)  ---------------------------------------


    POTLOK:  cpu time    8.6330: real time    8.6544
    SETDIJ:  cpu time    0.1132: real time    0.1135
    TRIAL :  cpu time   20.5854: real time   20.6646
    CORREC:  cpu time   27.9587: real time   28.0555
    CHARGE:  cpu time    1.1866: real time    1.1906
    --------------------------------------------
      LOOP:  cpu time   58.5030: real time   58.7076

 eigenvalue-minimisations  :     0
 total energy-change (2. order) :-0.4093238E-02  (-0.1295115E-02)
 number of electron      30.0000001 magnetization 
 augmentation part        1.0655710 magnetization 

 Free energy of the ion-electron system (eV)
  ---------------------------------------------------
  alpha Z        PSCENC =         0.06064420
  Ewald energy   TEWEN  =      2286.01574665
  -Hartree energ DENC   =     -3042.05081427
  -exchange      EXHF   =       309.41268609
  -V(xc)+E(xc)   XCENC  =         0.00000000
  PAW double counting   =     14113.52991133   -14112.79362986
  entropy T*S    EENTRO =        -0.00000000
  eigenvalues    EBANDS =      -551.51790345
  atomic energy  EATOM  =       867.64802841
  ---------------------------------------------------
  free energy    TOTEN  =      -129.69533089 eV

  energy without entropy =     -129.69533089  energy(sigma->0) =     -129.69533089
  exchange ACFDT corr.  =         0.00000000  see jH, gK, PRB 81, 115126


--------------------------------------------------------------------------------------------------------




----------------------------------------- Iteration    1(   7)  ---------------------------------------


    POTLOK:  cpu time    8.6876: real time    8.7092
    SETDIJ:  cpu time    0.1132: real time    0.1135
    TRIAL :  cpu time   20.4405: real time   20.5191
    CORREC:  cpu time   28.1659: real time   28.2636
    CHARGE:  cpu time    1.1843: real time    1.1882
    --------------------------------------------
      LOOP:  cpu time   58.6098: real time   58.8146

 eigenvalue-minimisations  :     0
 total energy-change (2. order) :-0.1295651E-02  (-0.4641763E-03)
 number of electron      30.0000001 magnetization 
 augmentation part        1.0662789 magnetization 

 Free energy of the ion-electron system (eV)
  ---------------------------------------------------
  alpha Z        PSCENC =         0.06064420
  Ewald energy   TEWEN  =      2286.01574665
  -Hartree energ DENC   =     -3042.32058078
  -exchange      EXHF   =       309.45705732
  -V(xc)+E(xc)   XCENC  =         0.00000000
  PAW double counting   =     14127.68015801   -14126.94494712
  entropy T*S    EENTRO =        -0.00000000
  eigenvalues    EBANDS =      -551.29273323
  atomic energy  EATOM  =       867.64802841
  ---------------------------------------------------
  free energy    TOTEN  =      -129.69662654 eV

  energy without entropy =     -129.69662654  energy(sigma->0) =     -129.69662654
  exchange ACFDT corr.  =        -0.00000000  see jH, gK, PRB 81, 115126


--------------------------------------------------------------------------------------------------------




----------------------------------------- Iteration    1(   8)  ---------------------------------------


    POTLOK:  cpu time    8.6580: real time    8.6795
    SETDIJ:  cpu time    0.1159: real time    0.1161
    TRIAL :  cpu time   20.4593: real time   20.5374
    CORREC:  cpu time   28.1642: real time   28.2609
    CHARGE:  cpu time    1.1879: real time    1.1919
    --------------------------------------------
      LOOP:  cpu time   58.6060: real time   58.8093

 eigenvalue-minimisations  :     0
 total energy-change (2. order) :-0.4642801E-03  (-0.1396955E-03)
 number of electron      30.0000001 magnetization 
 augmentation part        1.0663679 magnetization 

 Free energy of the ion-electron system (eV)
  ---------------------------------------------------
  alpha Z        PSCENC =         0.06064420
  Ewald energy   TEWEN  =      2286.01574665
  -Hartree energ DENC   =     -3042.07187609
  -exchange      EXHF   =       309.43241619
  -V(xc)+E(xc)   XCENC  =         0.00000000
  PAW double counting   =     14123.05527742   -14122.32067406
  entropy T*S    EENTRO =        -0.00000000
  eigenvalues    EBANDS =      -551.51665356
  atomic energy  EATOM  =       867.64802841
  ---------------------------------------------------
  free energy    TOTEN  =      -129.69709082 eV

  energy without entropy =     -129.69709082  energy(sigma->0) =     -129.69709082
  exchange ACFDT corr.  =         0.00000000  see jH, gK, PRB 81, 115126


--------------------------------------------------------------------------------------------------------




----------------------------------------- Iteration    1(   9)  ---------------------------------------


    POTLOK:  cpu time    8.6681: real time    8.6897
    SETDIJ:  cpu time    0.1137: real time    0.1140
    TRIAL :  cpu time   20.4762: real time   20.5551
    CORREC:  cpu time   28.0321: real time   28.1289
    CHARGE:  cpu time    1.1826: real time    1.1866
    --------------------------------------------
      LOOP:  cpu time   58.4916: real time   58.6961

 eigenvalue-minimisations  :     0
 total energy-change (2. order) :-0.1396236E-03  (-0.6620025E-04)
 number of electron      30.0000001 magnetization 
 augmentation part        1.0663416 magnetization 

 Free energy of the ion-electron system (eV)
  ---------------------------------------------------
  alpha Z        PSCENC =         0.06064420
  Ewald energy   TEWEN  =      2286.01574665
  -Hartree energ DENC   =     -3041.94191494
  -exchange      EXHF   =       309.41785323
  -V(xc)+E(xc)   XCENC  =         0.00000000
  PAW double counting   =     14122.02904052   -14121.29463188
  entropy T*S    EENTRO =        -0.00000000
  eigenvalues    EBANDS =      -551.63199663
  atomic energy  EATOM  =       867.64802841
  ---------------------------------------------------
  free energy    TOTEN  =      -129.69723044 eV

  energy without entropy =     -129.69723044  energy(sigma->0) =     -129.69723044
  exchange ACFDT corr.  =        -0.00000000  see jH, gK, PRB 81, 115126


--------------------------------------------------------------------------------------------------------




----------------------------------------- Iteration    1(  10)  ---------------------------------------


    POTLOK:  cpu time    8.6744: real time    8.6959
    SETDIJ:  cpu time    0.1130: real time    0.1133
    TRIAL :  cpu time   20.4735: real time   20.5530
    CORREC:  cpu time   28.1278: real time   28.2248
    CHARGE:  cpu time    1.1818: real time    1.1859
    --------------------------------------------
      LOOP:  cpu time   58.5923: real time   58.7977

 eigenvalue-minimisations  :     0
 total energy-change (2. order) :-0.6631021E-04  (-0.2544223E-04)
 number of electron      30.0000001 magnetization 
 augmentation part        1.0662081 magnetization 

 Free energy of the ion-electron system (eV)
  ---------------------------------------------------
  alpha Z        PSCENC =         0.06064420
  Ewald energy   TEWEN  =      2286.01574665
  -Hartree energ DENC   =     -3041.99022043
  -exchange      EXHF   =       309.42251807
  -V(xc)+E(xc)   XCENC  =         0.00000000
  PAW double counting   =     14121.33306542   -14120.59852637
  entropy T*S    EENTRO =        -0.00000000
  eigenvalues    EBANDS =      -551.58855270
  atomic energy  EATOM  =       867.64802841
  ---------------------------------------------------
  free energy    TOTEN  =      -129.69729675 eV

  energy without entropy =     -129.69729675  energy(sigma->0) =     -129.69729675
  exchange ACFDT corr.  =        -0.00000000  see jH, gK, PRB 81, 115126


--------------------------------------------------------------------------------------------------------




----------------------------------------- Iteration    1(  11)  ---------------------------------------


    POTLOK:  cpu time    8.6579: real time    8.6794
    SETDIJ:  cpu time    0.1146: real time    0.1149
    TRIAL :  cpu time   20.2626: real time   20.3405
    CORREC:  cpu time   28.1227: real time   28.2191
    CHARGE:  cpu time    1.1798: real time    1.1838
    --------------------------------------------
      LOOP:  cpu time   58.3585: real time   58.5615

 eigenvalue-minimisations  :     0
 total energy-change (2. order) :-0.2544872E-04  (-0.1178561E-04)
 number of electron      30.0000001 magnetization 
 augmentation part        1.0661296 magnetization 

 Free energy of the ion-electron system (eV)
  ---------------------------------------------------
  alpha Z        PSCENC =         0.06064420
  Ewald energy   TEWEN  =      2286.01574665
  -Hartree energ DENC   =     -3042.01946728
  -exchange      EXHF   =       309.42526622
  -V(xc)+E(xc)   XCENC  =         0.00000000
  PAW double counting   =     14121.73801537   -14121.00342552
  entropy T*S    EENTRO =        -0.00000000
  eigenvalues    EBANDS =      -551.56213025
  atomic energy  EATOM  =       867.64802841
  ---------------------------------------------------
  free energy    TOTEN  =      -129.69732220 eV

  energy without entropy =     -129.69732220  energy(sigma->0) =     -129.69732220
  exchange ACFDT corr.  =        -0.00000000  see jH, gK, PRB 81, 115126


--------------------------------------------------------------------------------------------------------




----------------------------------------- Iteration    1(  12)  ---------------------------------------


    POTLOK:  cpu time    8.6588: real time    8.6803
    SETDIJ:  cpu time    0.1129: real time    0.1132
    TRIAL :  cpu time   20.2912: real time   20.3696
    CORREC:  cpu time   28.0518: real time   28.1490
    CHARGE:  cpu time    1.1857: real time    1.1896
    --------------------------------------------
      LOOP:  cpu time   58.3235: real time   58.5280

 eigenvalue-minimisations  :     0
 total energy-change (2. order) :-0.1178744E-04  (-0.5393906E-05)
 number of electron      30.0000001 magnetization 
 augmentation part        1.0661272 magnetization 

 Free energy of the ion-electron system (eV)
  ---------------------------------------------------
  alpha Z        PSCENC =         0.06064420
  Ewald energy   TEWEN  =      2286.01574665
  -Hartree energ DENC   =     -3042.01767650
  -exchange      EXHF   =       309.42428815
  -V(xc)+E(xc)   XCENC  =         0.00000000
  PAW double counting   =     14120.77913579   -14120.04447481
  entropy T*S    EENTRO =        -0.00000000
  eigenvalues    EBANDS =      -551.56302589
  atomic energy  EATOM  =       867.64802841
  ---------------------------------------------------
  free energy    TOTEN  =      -129.69733399 eV

  energy without entropy =     -129.69733399  energy(sigma->0) =     -129.69733399
  exchange ACFDT corr.  =         0.00000000  see jH, gK, PRB 81, 115126


--------------------------------------------------------------------------------------------------------




----------------------------------------- Iteration    1(  13)  ---------------------------------------


    POTLOK:  cpu time    8.6790: real time    8.7006
    SETDIJ:  cpu time    0.1135: real time    0.1138
    TRIAL :  cpu time   20.4791: real time   20.5590
    CORREC:  cpu time   27.9788: real time   28.0752
    CHARGE:  cpu time    1.1894: real time    1.1936
    --------------------------------------------
      LOOP:  cpu time   58.4597: real time   58.6649

 eigenvalue-minimisations  :     0
 total energy-change (2. order) :-0.5395405E-05  (-0.1861454E-05)
 number of electron      30.0000001 magnetization 
 augmentation part        1.0660835 magnetization 

 Free energy of the ion-electron system (eV)
  ---------------------------------------------------
  alpha Z        PSCENC =         0.06064420
  Ewald energy   TEWEN  =      2286.01574665
  -Hartree energ DENC   =     -3042.01160450
  -exchange      EXHF   =       309.42312457
  -V(xc)+E(xc)   XCENC  =         0.00000000
  PAW double counting   =     14118.73423678   -14117.99946265
  entropy T*S    EENTRO =        -0.00000000
  eigenvalues    EBANDS =      -551.56805283
  atomic energy  EATOM  =       867.64802841
  ---------------------------------------------------
  free energy    TOTEN  =      -129.69733938 eV

  energy without entropy =     -129.69733938  energy(sigma->0) =     -129.69733938
  exchange ACFDT corr.  =         0.00000000  see jH, gK, PRB 81, 115126


--------------------------------------------------------------------------------------------------------




----------------------------------------- Iteration    1(  14)  ---------------------------------------


    POTLOK:  cpu time    8.6808: real time    8.7023
    SETDIJ:  cpu time    0.1139: real time    0.1142
    TRIAL :  cpu time   20.4636: real time   20.5417
    CORREC:  cpu time   28.1127: real time   28.2096
    CHARGE:  cpu time    1.1902: real time    1.1943
    --------------------------------------------
      LOOP:  cpu time   58.5821: real time   58.7858

 eigenvalue-minimisations  :     0
 total energy-change (2. order) :-0.1861807E-05  (-0.6113210E-06)
 number of electron      30.0000001 magnetization 
 augmentation part        1.0660734 magnetization 

 Free energy of the ion-electron system (eV)
  ---------------------------------------------------
  alpha Z        PSCENC =         0.06064420
  Ewald energy   TEWEN  =      2286.01574665
  -Hartree energ DENC   =     -3042.01079068
  -exchange      EXHF   =       309.42307752
  -V(xc)+E(xc)   XCENC  =         0.00000000
  PAW double counting   =     14118.75095913   -14118.01616647
  entropy T*S    EENTRO =        -0.00000000
  eigenvalues    EBANDS =      -551.56884000
  atomic energy  EATOM  =       867.64802841
  ---------------------------------------------------
  free energy    TOTEN  =      -129.69734125 eV

  energy without entropy =     -129.69734125  energy(sigma->0) =     -129.69734125
  exchange ACFDT corr.  =        -0.00000000  see jH, gK, PRB 81, 115126


--------------------------------------------------------------------------------------------------------




----------------------------------------- Iteration    1(  15)  ---------------------------------------


    POTLOK:  cpu time    8.6503: real time    8.6717
    SETDIJ:  cpu time    0.1150: real time    0.1153
    TRIAL :  cpu time   20.4501: real time   20.5297
    CORREC:  cpu time   28.0910: real time   28.1882
    CHARGE:  cpu time    1.1869: real time    1.1908
    --------------------------------------------
      LOOP:  cpu time   58.5126: real time   58.7179

 eigenvalue-minimisations  :     0
 total energy-change (2. order) :-0.6105984E-06  (-0.2073743E-06)
 number of electron      30.0000001 magnetization 
 augmentation part        1.0660803 magnetization 

 Free energy of the ion-electron system (eV)
  ---------------------------------------------------
  alpha Z        PSCENC =         0.06064420
  Ewald energy   TEWEN  =      2286.01574665
  -Hartree energ DENC   =     -3042.01469617
  -exchange      EXHF   =       309.42349258
  -V(xc)+E(xc)   XCENC  =         0.00000000
  PAW double counting   =     14118.89158931   -14118.15679460
  entropy T*S    EENTRO =        -0.00000000
  eigenvalues    EBANDS =      -551.56535223
  atomic energy  EATOM  =       867.64802841
  ---------------------------------------------------
  free energy    TOTEN  =      -129.69734186 eV

  energy without entropy =     -129.69734186  energy(sigma->0) =     -129.69734186
  exchange ACFDT corr.  =        -0.00000000  see jH, gK, PRB 81, 115126


--------------------------------------------------------------------------------------------------------




----------------------------------------- Iteration    1(  16)  ---------------------------------------


    POTLOK:  cpu time    8.6753: real time    8.6967
    SETDIJ:  cpu time    0.1134: real time    0.1137
    TRIAL :  cpu time   20.4776: real time   20.5567
    CORREC:  cpu time   28.0735: real time   28.1703
    CHARGE:  cpu time    1.1826: real time    1.1867
    --------------------------------------------
      LOOP:  cpu time   58.5409: real time   58.7457

 eigenvalue-minimisations  :     0
 total energy-change (2. order) :-0.2071856E-06  (-0.8020042E-07)
 number of electron      30.0000001 magnetization 
 augmentation part        1.0660832 magnetization 

 Free energy of the ion-electron system (eV)
  ---------------------------------------------------
  alpha Z        PSCENC =         0.06064420
  Ewald energy   TEWEN  =      2286.01574665
  -Hartree energ DENC   =     -3042.01705514
  -exchange      EXHF   =       309.42371498
  -V(xc)+E(xc)   XCENC  =         0.00000000
  PAW double counting   =     14118.88082748   -14118.14602927
  entropy T*S    EENTRO =        -0.00000000
  eigenvalues    EBANDS =      -551.56321938
  atomic energy  EATOM  =       867.64802841
  ---------------------------------------------------
  free energy    TOTEN  =      -129.69734206 eV

  energy without entropy =     -129.69734206  energy(sigma->0) =     -129.69734206
  exchange ACFDT corr.  =         0.00000000  see jH, gK, PRB 81, 115126


--------------------------------------------------------------------------------------------------------




----------------------------------------- Iteration    1(  17)  ---------------------------------------


    POTLOK:  cpu time    8.6649: real time    8.6863
    SETDIJ:  cpu time    0.1144: real time    0.1147
    TRIAL :  cpu time   20.5146: real time   20.5942
    CORREC:  cpu time   28.0797: real time   28.1771
    CHARGE:  cpu time    1.1864: real time    1.1903
    --------------------------------------------
      LOOP:  cpu time   58.5807: real time   58.7863

 eigenvalue-minimisations  :     0
 total energy-change (2. order) :-0.8002212E-07  (-0.2901036E-07)
 number of electron      30.0000001 magnetization 
 augmentation part        1.0660843 magnetization 

 Free energy of the ion-electron system (eV)
  ---------------------------------------------------
  alpha Z        PSCENC =         0.06064420
  Ewald energy   TEWEN  =      2286.01574665
  -Hartree energ DENC   =     -3042.01695449
  -exchange      EXHF   =       309.42371127
  -V(xc)+E(xc)   XCENC  =         0.00000000
  PAW double counting   =     14118.95083654   -14118.21604060
  entropy T*S    EENTRO =        -0.00000000
  eigenvalues    EBANDS =      -551.56331412
  atomic energy  EATOM  =       867.64802841
  ---------------------------------------------------
  free energy    TOTEN  =      -129.69734214 eV

  energy without entropy =     -129.69734214  energy(sigma->0) =     -129.69734214
  exchange ACFDT corr.  =         0.00000000  see jH, gK, PRB 81, 115126


--------------------------------------------------------------------------------------------------------


  average scaling for gradient   1.0441


 average (electrostatic) potential at core
  the test charge radii are     0.8471  0.6256
  (the norm of the test charge is              1.0000)
       1 -65.9007       2 -65.9012       3 -65.9019       4 -65.9012       5 -65.9007
       6 -65.9010       7 -20.9428       8 -20.9437       9 -20.9424      10 -20.9437
      11 -20.9428      12 -20.9406
 
 
 
 E-fermi :  -9.0978     XC(G=0):   0.0000     alpha+bet : -0.0192


 k-point     1 :       0.0000    0.0000    0.0000
  band No.  band energies     occupation 
      1     -31.3248      2.00000
      2     -27.6300      2.00000
      3     -27.6245      2.00000
      4     -22.4175      2.00000
      5     -22.4154      2.00000
      6     -19.2892      2.00000
      7     -17.5104      2.00000
      8     -16.7986      2.00000
      9     -15.9721      2.00000
     10     -15.9662      2.00000
     11     -13.6702      2.00000
     12     -13.4119      2.00000
     13     -13.4111      2.00000
     14      -9.1722      2.00000
     15      -9.1680      2.00000
     16       0.0156      0.00000
     17       0.1347      0.00000
     18       0.1368      0.00000
     19       0.1411      0.00000
     20       0.1911      0.00000
     21       0.1917      0.00000
     22       0.2231      0.00000
     23       2.2299      0.00000
     24       2.2304      0.00000


--------------------------------------------------------------------------------------------------------


 soft charge-density along one line, spin component           1
         0         1         2         3         4         5         6         7         8         9
 total charge-density along one line
 
 pseudopotential strength for first ion, spin component:           1
 17.322  20.387  -0.000  -0.000   0.000  -0.000  -0.001   0.000
 20.387  23.998  -0.000  -0.000   0.000  -0.000  -0.001   0.000
 -0.000  -0.000  -0.907  -0.002  -0.006  -0.837  -0.002  -0.007
 -0.000  -0.000  -0.002  -0.908   0.000  -0.002  -0.838   0.001
  0.000   0.000  -0.006   0.000  -0.931  -0.007   0.001  -0.869
 -0.000  -0.000  -0.837  -0.002  -0.007  -0.585  -0.003  -0.010
 -0.001  -0.001  -0.002  -0.838   0.001  -0.003  -0.587   0.001
  0.000   0.000  -0.007   0.001  -0.869  -0.010   0.001  -0.628
 total augmentation occupancy for first ion, spin component:           1
 21.664 -13.823   1.023   1.808  -0.229  -0.680  -1.201   0.152
-13.823   8.893  -0.755  -1.335   0.169   0.500   0.883  -0.111
  1.023  -0.755  16.712  -0.884  -2.074  -9.381   0.558   1.246
  1.808  -1.335  -0.884  16.130   0.203   0.558  -9.001  -0.128
 -0.229   0.169  -2.074   0.203   7.825   1.246  -0.128  -4.039
 -0.680   0.500  -9.381   0.558   1.246   5.287  -0.350  -0.745
 -1.201   0.883   0.558  -9.001  -0.128  -0.350   5.040   0.080
  0.152  -0.111   1.246  -0.128  -4.039  -0.745   0.080   2.091


------------------------ aborting loop because EDIFF is reached ----------------------------------------



 DIPCOR: dipole corrections for dipol
 direction  1 min pos   393, direction  2 min pos   387, direction  3 min pos   382,
 dipolmoment           0.001314      0.000159     -0.000000 electrons x Angstroem
 Tr[quadrupol]        18.633480

 energy correction for charged system         0.000000 eV
 dipol+quadrupol energy correction            0.000000 eV
 added-field ion interaction          0.000000 eV  (added to PSCEN)

 
  *************** adding dipol energy to TOTEN NOW **************** 
    FORLOC:  cpu time    0.7974: real time    0.7994
    FORHF :  cpu time   14.4086: real time   14.4444
    FORNL :  cpu time    0.5815: real time    0.5829
    OFIELD:  cpu time    0.0732: real time    0.0734

 VOLUME and BASIS-vectors are now :
 -----------------------------------------------------------------------------
  energy-cutoff  :     1000.00
  volume of cell :    42875.00
      direct lattice vectors                 reciprocal lattice vectors
    35.000000000  0.000000000  0.000000000     0.028571429  0.000000000  0.000000000
     0.000000000 35.000000000  0.000000000     0.000000000  0.028571429  0.000000000
     0.000000000  0.000000000 35.000000000     0.000000000  0.000000000  0.028571429

  length of vectors
    35.000000000 35.000000000 35.000000000     0.028571429  0.028571429  0.028571429


 FORCES acting on ions:
    Electron-Ion                     Ewald-Force                    Non-Local-Force
 -----------------------------------------------------------------------------------------------
   -.197E+02 0.885E+02 0.157E+03   0.196E+02 -.881E+02 -.156E+03   0.987E-01 -.419E+00 -.746E+00
   0.195E+02 -.885E+02 0.157E+03   -.194E+02 0.882E+02 -.156E+03   -.925E-01 0.438E+00 -.721E+00
   0.390E+02 -.177E+03 -.236E-07   -.389E+02 0.176E+03 0.239E-07   -.168E+00 0.827E+00 0.000E+00
   0.195E+02 -.885E+02 -.157E+03   -.194E+02 0.882E+02 0.156E+03   -.925E-01 0.438E+00 0.721E+00
   -.197E+02 0.885E+02 -.157E+03   0.196E+02 -.881E+02 0.156E+03   0.987E-01 -.419E+00 0.746E+00
   -.393E+02 0.177E+03 0.239E-08   0.391E+02 -.176E+03 -.461E-08   0.198E+00 -.847E+00 0.000E+00
   -.873E+01 0.396E+02 0.703E+02   0.939E+01 -.426E+02 -.756E+02   -.413E+00 0.188E+01 0.333E+01
   0.902E+01 -.396E+02 0.703E+02   -.970E+01 0.426E+02 -.756E+02   0.432E+00 -.188E+01 0.333E+01
   0.177E+02 -.792E+02 -.247E-08   -.190E+02 0.852E+02 0.176E-08   0.840E+00 -.376E+01 0.000E+00
   0.902E+01 -.396E+02 -.703E+02   -.970E+01 0.426E+02 0.756E+02   0.432E+00 -.188E+01 -.333E+01
   -.873E+01 0.396E+02 -.703E+02   0.939E+01 -.426E+02 0.756E+02   -.413E+00 0.188E+01 -.333E+01
   -.177E+02 0.792E+02 0.159E-08   0.191E+02 -.851E+02 -.320E-09   -.844E+00 0.375E+01 0.000E+00
 -----------------------------------------------------------------------------------------------
   -.972E-01 -.251E-01 -.307E-09   0.000E+00 0.426E-13 0.164E-13   0.769E-01 0.179E-01 0.444E-15
 
 
 POSITION                                       TOTAL-FORCE (eV/Angst)
 -----------------------------------------------------------------------------------
      0.78015     34.39009     33.79244        -0.030213      0.135146      0.231741
      0.47794      0.75099     33.79210         0.013452     -0.117398      0.266800
      0.32729      1.43187      0.00000         0.056603     -0.287323      0.000000
      0.47794      0.75099      1.20790         0.013452     -0.117398     -0.266800
      0.78015     34.39009      1.20756        -0.030213      0.135146     -0.231741
      0.93165     33.71002      0.00000        -0.041914      0.249456      0.000000
      0.89619     33.86236     32.85586        -0.023535      0.115453      0.213671
      0.35696      1.27817     32.85595         0.036571     -0.116551      0.207509
      0.09147      2.48714      0.00000         0.055268     -0.238817      0.000000
      0.35696      1.27817      2.14405         0.036571     -0.116551     -0.207509
      0.89619     33.86236      2.14414        -0.023535      0.115453     -0.213671
      1.16849     32.65479      0.00000        -0.062505      0.243385      0.000000
 -----------------------------------------------------------------------------------
    total drift:                                0.000009     -0.000021     -0.000000


--------------------------------------------------------------------------------------------------------



  FREE ENERGIE OF THE ION-ELECTRON SYSTEM (eV)
  ---------------------------------------------------
  free  energy   TOTEN  =      -129.69734214 eV

  energy  without entropy=     -129.69734214  energy(sigma->0) =     -129.69734214
 


--------------------------------------------------------------------------------------------------------


    POTLOK:  cpu time    8.7955: real time    8.8169


--------------------------------------------------------------------------------------------------------


     LOOP+:  cpu time 1294.2603: real time 1299.1995
    4ORBIT:  cpu time    0.0000: real time    0.0000

 total amount of memory used by VASP on root node  1884748. kBytes
========================================================================

   base      :      30000. kBytes
   nonl-proj :      61570. kBytes
   fftplans  :     693297. kBytes
   grid      :    1044223. kBytes
   one-center:          3. kBytes
   HF        :          9. kBytes
   nonlr-proj:        233. kBytes
   wavefun   :      55413. kBytes
 
  
  
 General timing and accounting informations for this job:
 ========================================================
  
                  Total CPU time used (sec):     1661.842
                            User time (sec):     1490.386
                          System time (sec):      171.456
                         Elapsed time (sec):     1669.117
  
                   Maximum memory used (kb):     2579828.
                   Average memory used (kb):           0.
  
                          Minor page faults:       326170
                          Major page faults:            0
                 Voluntary context switches:       153167
 
 PROFILE, used timers:      34
 =============================
 
 index                 routine                    time                            calls level
----------------------------------------------------------------------------------------------
    1    total_time                         1669.118827                                1   1
    2      w1_copy                               0.194251                            374   2
    3      fftwav_mpi                           37.293309                            368   2
    4      fftext_mpi                            0.419620                              6   2
    5      overl                                 0.000172                            171   2
    6      orth1                                 0.182953                             86   2
    7      lincom                                0.357685                            103   2
    8      fock_acc                            296.223124                             51   2
    9        w1_copy                               0.227194                          306   3
   10        fftwav_mpi                           16.270448                          306   3
   11        fock_charge_mu                       16.770484                          204   3
   12          racc0mu_hf                            0.553005                        204   4
   13        rpromu_hf                             0.657099                          204   3
   14        overl1                                0.000065                          102   3
   15        fftext_mpi                            4.134385                          102   3
   16      hamilt_local                         11.092500                            102   2
   17        vhamil                                2.460383                          102   3
   18        kinhamil                              8.631872                          102   3
   19          fftext_mpi                            8.565172                        102   4
   20      eccp                                  5.989214                            306   2
   21      w1_dscal                              1.172537                            102   2
   22      pdssyex_zheevx                        0.371452                             34   2
   23      eddiag                              307.972046                             17   2
   24        fock_acc                            295.870115                           51   3
   25          w1_copy                               0.205183                        306   4
   26          fftwav_mpi                           16.100506                        306   4
   27          fock_charge_mu                       16.895609                        204   4
   28            racc0mu_hf                            0.664912                      204   5
   29          rpromu_hf                             0.691846                        204   4
   30          overl1                                0.000067                        102   4
   31          fftext_mpi                            4.059524                        102   4
   32        fftwav_mpi                           10.096661                          102   3
   33        eccp                                  1.708714                          102   3
   34      rpro1_hf                              0.176749                            384   2
 
 Flat profile
 ============
 
             routine name                   CPU           calls
 ---------------------------------------------------------------
 total_time                           1007.673215           1
 fock_acc                              516.080828         102
 fftwav_mpi                             79.760925        1082
 fock_charge_mu                         32.448176         408
 fftext_mpi                             17.178701         312
 eccp                                    7.697928         408
 vhamil                                  2.460383         102
 rpromu_hf                               1.348946         408
 racc0mu_hf                              1.217916         408
 w1_dscal                                1.172537         102
 w1_copy                                 0.626628         986
 pdssyex_zheevx                          0.371452          34
 lincom                                  0.357685         103
 eddiag                                  0.296556          17
 orth1                                   0.182953          86
 rpro1_hf                                0.176749         384
 kinhamil                                0.066700         102
 hamilt_local                            0.000245         102
 overl                                   0.000172         171
 overl1                                  0.000132         204
 ---------------------------------------------------------------
  summed up times    1669.11882686615     
 
Profiling took   0.006571  0.004254  0.003394  0.003370 seconds
Profiling took   0.002483 seconds
