 vasp.5.4.1 24Jun15 (build Jan 02 2020 16:21:29) gamma-only                     
  
 executed on           IFC15_impi date 2020.08.28  09:35:22
 running on   32 total cores
 distrk:  each k-point on   32 cores,    1 groups
 distr:  one band on NCORES_PER_BAND=   8 cores,    4 groups


--------------------------------------------------------------------------------------------------------


 INCAR:
 POTCAR:    PAW_PBE C_s 06Sep2000                 
 POTCAR:    PAW_PBE O_s 07Sep2000                 
 POTCAR:    PAW_PBE H_s 15May2010                 
 POTCAR:    PAW_PBE C_s 06Sep2000                 
   VRHFIN =C: s2p2                                                              
   LEXCH  = PE                                                                  
   EATOM  =   147.1560 eV,   10.8157 Ry                                         
                                                                                
   TITEL  = PAW_PBE C_s 06Sep2000                                               
   LULTRA =        F    use ultrasoft PP ?                                      
   IUNSCR =        0    unscreen: 0-lin 1-nonlin 2-no                           
   RPACOR =    0.000    partial core radius                                     
   POMASS =   12.011; ZVAL   =    4.000    mass and valenz                      
   RCORE  =    1.850    outmost cutoff radius                                   
   RWIGS  =    1.890; RWIGS  =    1.000    wigner-seitz radius (au A)           
   ENMAX  =  273.911; ENMIN  =  205.433 eV                                      
   RCLOC  =    0.804    cutoff for local pot                                    
   LCOR   =        T    correct aug charges                                     
   LPAW   =        T    paw PP                                                  
   EAUG   =  439.243                                                            
   DEXC   =    0.000                                                            
   RMAX   =    1.897    core radius for proj-oper                               
   RAUG   =    1.300    factor for augmentation sphere                          
   RDEP   =    1.940    radius for radial grids                                 
   RDEPT  =    1.573    core radius for aug-charge                              
                                                                                
   Atomic configuration                                                         
    4 entries                                                                   
     n  l   j            E        occ.                                          
     1  0  0.50      -273.3789   2.0000                                         
     2  0  0.50       -13.7508   2.0000                                         
     2  1  0.50        -5.2854   2.0000                                         
     3  2  1.50        -1.3606   0.0000                                         
   Description                                                                  
     l       E           TYP  RCUT    TYP  RCUT                                 
     0    -13.7508457     23  1.500                                             
     0    -11.0934578     23  1.500                                             
     1     -5.2854381     23  1.850                                             
     1     -1.3099858     23  1.850                                             
  local pseudopotential read in
  atomic valenz-charges read in
  non local Contribution for L=           0  read in
    real space projection operators read in
  non local Contribution for L=           0  read in
    real space projection operators read in
  non local Contribution for L=           1  read in
    real space projection operators read in
  non local Contribution for L=           1  read in
    real space projection operators read in
    PAW grid and wavefunctions read in
 
   number of l-projection  operators is LMAX  =           4
   number of lm-projection operators is LMMAX =           8
 
 POTCAR:    PAW_PBE O_s 07Sep2000                 
   VRHFIN =O: s2p4                                                              
   LEXCH  = PE                                                                  
   EATOM  =   432.3788 eV,   31.7789 Ry                                         
                                                                                
   TITEL  = PAW_PBE O_s 07Sep2000                                               
   LULTRA =        F    use ultrasoft PP ?                                      
   IUNSCR =        0    unscreen: 0-lin 1-nonlin 2-no                           
   RPACOR =    0.000    partial core radius                                     
   POMASS =   16.000; ZVAL   =    6.000    mass and valenz                      
   RCORE  =    1.850    outmost cutoff radius                                   
   RWIGS  =    1.700; RWIGS  =    0.900    wigner-seitz radius (au A)           
   ENMAX  =  282.853; ENMIN  =  212.140 eV                                      
   RCLOC  =    0.804    cutoff for local pot                                    
   LCOR   =        T    correct aug charges                                     
   LPAW   =        T    paw PP                                                  
   EAUG   =  412.352                                                            
   RMAX   =    1.897    core radius for proj-oper                               
   RAUG   =    1.300    factor for augmentation sphere                          
   RDEP   =    1.878    radius for radial grids                                 
   RDEPT  =    1.572    core radius for aug-charge                              
                                                                                
   Atomic configuration                                                         
    4 entries                                                                   
     n  l   j            E        occ.                                          
     1  0  0.50      -514.6923   2.0000                                         
     2  0  0.50       -23.9615   2.0000                                         
     2  1  0.50        -9.0305   4.0000                                         
     3  2  1.50        -1.3606   0.0000                                         
   Description                                                                  
     l       E           TYP  RCUT    TYP  RCUT                                 
     0    -23.9615315     23  1.500                                             
     0    -25.3221141     23  1.500                                             
     1     -9.0304908     23  1.850                                             
     1     -7.3935399     23  1.850                                             
  local pseudopotential read in
  atomic valenz-charges read in
  non local Contribution for L=           0  read in
    real space projection operators read in
  non local Contribution for L=           0  read in
    real space projection operators read in
  non local Contribution for L=           1  read in
    real space projection operators read in
  non local Contribution for L=           1  read in
    real space projection operators read in
    PAW grid and wavefunctions read in
 
   number of l-projection  operators is LMAX  =           4
   number of lm-projection operators is LMMAX =           8
 
 POTCAR:    PAW_PBE H_s 15May2010                 
   VRHFIN =H: ultrasoft test                                                    
   LEXCH  = PE                                                                  
   EATOM  =    12.4884 eV,    0.9179 Ry                                         
                                                                                
   TITEL  = PAW_PBE H_s 15May2010                                               
   LULTRA =        F    use ultrasoft PP ?                                      
   IUNSCR =        0    unscreen: 0-lin 1-nonlin 2-no                           
   RPACOR =    0.000    partial core radius                                     
   POMASS =    1.000; ZVAL   =    1.000    mass and valenz                      
   RCORE  =    1.300    outmost cutoff radius                                   
   RWIGS  =    0.700; RWIGS  =    0.370    wigner-seitz radius (au A)           
   ENMAX  =  200.000; ENMIN  =  150.000 eV                                      
   RCLOC  =    0.701    cutoff for local pot                                    
   LCOR   =        T    correct aug charges                                     
   LPAW   =        T    paw PP                                                  
   EAUG   =  300.000                                                            
   RMAX   =    1.330    core radius for proj-oper                               
   RAUG   =    1.200    factor for augmentation sphere                          
   RDEP   =    1.337    radius for radial grids                                 
   RDEPT  =    1.114    core radius for aug-charge                              
                                                                                
   Atomic configuration                                                         
    2 entries                                                                   
     n  l   j            E        occ.                                          
     1  0  0.50        -6.4927   1.0000                                         
     2  1  0.50        -3.4015   0.0000                                         
   Description                                                                  
     l       E           TYP  RCUT    TYP  RCUT                                 
     0     -6.4927494     23  1.300                                             
     0      6.8029130     23  1.300                                             
     1     -4.0817478     23  1.300                                             
  local pseudopotential read in
  atomic valenz-charges read in
  non local Contribution for L=           0  read in
    real space projection operators read in
  non local Contribution for L=           0  read in
    real space projection operators read in
  non local Contribution for L=           1  read in
    real space projection operators read in
    PAW grid and wavefunctions read in
 
   number of l-projection  operators is LMAX  =           3
   number of lm-projection operators is LMMAX =           5
 
  PAW_PBE C_s 06Sep2000                 :
 energy of atom  1       EATOM= -147.1560
 kinetic energy error for atom=    0.0002 (will be added to EATOM!!)
  PAW_PBE O_s 07Sep2000                 :
 energy of atom  2       EATOM= -432.3788
 kinetic energy error for atom=    0.0004 (will be added to EATOM!!)
  PAW_PBE H_s 15May2010                 :
 energy of atom  3       EATOM=  -12.4884
 kinetic energy error for atom=    0.0000 (will be added to EATOM!!)
 
 
 POSCAR: C O H                                   
  positions in cartesian coordinates
  No initial velocities read in
 exchange correlation table for  LEXCH =        8
   RHO(1)=    0.500       N(1)  =     2000
   RHO(2)=  100.500       N(2)  =     4000
 


--------------------------------------------------------------------------------------------------------


 ion  position               nearest neighbor table
   1  0.012  0.992  0.115-   3 1.21   4 1.36   2 1.50
   2  0.983  0.022  0.106-   6 1.08   8 1.09   7 1.09   1 1.50
   3  0.046  0.997  0.117-   1 1.21
   4  0.995  0.958  0.121-   5 0.97   1 1.36
   5  0.016  0.940  0.126-   4 0.97
   6  0.996  0.050  0.105-   2 1.08
   7  0.970  0.015  0.079-   2 1.09
   8  0.960  0.022  0.128-   2 1.09
 
  LATTYP: Found a simple cubic cell.
 ALAT       =    35.0000000000
  
  Lattice vectors:
  
 A1 = (  35.0000000000,   0.0000000000,   0.0000000000)
 A2 = (   0.0000000000,  35.0000000000,   0.0000000000)
 A3 = (   0.0000000000,   0.0000000000,  35.0000000000)


Analysis of symmetry for initial positions (statically):
=====================================================================
 Subroutine PRICEL returns:
 Original cell was already a primitive cell.
 

 Routine SETGRP: Setting up the symmetry group for a 
 simple cubic supercell.


 Subroutine GETGRP returns: Found  1 space group operations
 (whereof  1 operations were pure point group operations)
 out of a pool of 48 trial point group operations.


The static configuration has the point symmetry C_1 .


Analysis of symmetry for dynamics (positions and initial velocities):
=====================================================================
 Subroutine PRICEL returns:
 Original cell was already a primitive cell.
 

 Routine SETGRP: Setting up the symmetry group for a 
 simple cubic supercell.


 Subroutine GETGRP returns: Found  1 space group operations
 (whereof  1 operations were pure point group operations)
 out of a pool of 48 trial point group operations.


The dynamic configuration has the point symmetry C_1 .
 
 
 KPOINTS: automatic mesh                          

Automatic generation of k-mesh.
Space group operators:
 irot       det(A)        alpha          n_x          n_y          n_z        tau_x        tau_y        tau_z
    1     1.000000     0.000000     1.000000     0.000000     0.000000     0.000000     0.000000     0.000000
 
 Subroutine IBZKPT returns following result:
 ===========================================
 
 Found      1 irreducible k-points:
 
 Following reciprocal coordinates:
            Coordinates               Weight
  0.000000  0.000000  0.000000      1.000000
 
 Following cartesian coordinates:
            Coordinates               Weight
  0.000000  0.000000  0.000000      1.000000
 
 
 Subroutine IBZKPT_HF returns following result:
 ==============================================
 
 Found      1 k-points in 1st BZ
 the following      1 k-points will be used (e.g. in the exchange kernel)
 Following reciprocal coordinates:   # in IRBZ
  0.000000  0.000000  0.000000    1.00000000   1 t-inv F


--------------------------------------------------------------------------------------------------------




 Dimension of arrays:
   k-points           NKPTS =      1   k-points in BZ     NKDIM =      1   number of bands    NBANDS=     20
   number of dos      NEDOS =    301   number of ions     NIONS =      8
   non local maximal  LDIM  =      4   non local SUM 2l+1 LMDIM =      8
   total plane-waves  NPLWV = ******
   max r-space proj   IRMAX =      1   max aug-charges    IRDMAX=  29269
   dimension x,y,z NGX =   378 NGY =  378 NGZ =  378
   dimension x,y,z NGXF=   756 NGYF=  756 NGZF=  756
   support grid    NGXF=   756 NGYF=  756 NGZF=  756
   ions per type =               2   2   4
 NGX,Y,Z   is equivalent  to a cutoff of  17.95, 17.95, 17.95 a.u.
 NGXF,Y,Z  is equivalent  to a cutoff of  35.91, 35.91, 35.91 a.u.


 I would recommend the setting:
   dimension x,y,z NGX =   361 NGY =  361 NGZ =  361
 SYSTEM =  C                                       
 POSCAR =  C O H                                   

 Startparameter for this run:
   NWRITE =      2    write-flag & timer
   PREC   = accura    normal or accurate (medium, high low for compatibility)
   ISTART =      1    job   : 0-new  1-cont  2-samecut
   ICHARG =      0    charge: 1-file 2-atom 10-const
   ISPIN  =      1    spin polarized calculation?
   LNONCOLLINEAR =      F non collinear calculations
   LSORBIT =      F    spin-orbit coupling
   INIWAV =      1    electr: 0-lowe 1-rand  2-diag
   LASPH  =      T    aspherical Exc in radial PAW
   METAGGA=      F    non-selfconsistent MetaGGA calc.

 Electronic Relaxation 1
   ENCUT  = 1000.0 eV  73.50 Ry    8.57 a.u.  90.25 90.25 90.25*2*pi/ulx,y,z
   ENINI  = 1000.0     initial cutoff
   ENAUG  =  439.2 eV  augmentation charge cutoff
   NELM   =     60;   NELMIN=  2; NELMDL=  0     # of ELM steps 
   EDIFF  = 0.1E-06   stopping-criterion for ELM
   LREAL  =      F    real-space projection
   NLSPLINE    = F    spline interpolate recip. space projectors
   LCOMPAT=      F    compatible to vasp.4.4
   GGA_COMPAT  = T    GGA compatible to vasp.4.4-vasp.4.6
   LMAXPAW     = -100 max onsite density
   LMAXMIX     =    2 max onsite mixed and CHGCAR
   VOSKOWN=      0    Vosko Wilk Nusair interpolation
   ROPT   =    0.00000   0.00000   0.00000
 Ionic relaxation
   EDIFFG = 0.1E-05   stopping-criterion for IOM
   NSW    =      0    number of steps for IOM
   NBLOCK =      1;   KBLOCK =      1    inner block; outer block 
   IBRION =     -1    ionic relax: 0-MD 1-quasi-New 2-CG
   NFREE  =      0    steps in history (QN), initial steepest desc. (CG)
   ISIF   =      0    stress and relaxation
   IWAVPR =     10    prediction:  0-non 1-charg 2-wave 3-comb
   ISYM   =      3    0-nonsym 1-usesym 2-fastsym
   LCORR  =      T    Harris-Foulkes like correction to forces

   POTIM  = 0.5000    time-step for ionic-motion
   TEIN   =    0.0    initial temperature
   TEBEG  =    0.0;   TEEND  =   0.0 temperature during run
   SMASS  =  -3.00    Nose mass-parameter (am)
   estimated Nose-frequenzy (Omega)   =  0.10E-29 period in steps =****** mass=  -0.280E-25a.u.
   SCALEE = 1.0000    scale energy and forces
   NPACO  =    256;   APACO  = 16.0  distance and # of slots for P.C.
   PSTRESS=    0.0 pullay stress

  Mass of Ions in am
   POMASS =  12.01 16.00  1.00
  Ionic Valenz
   ZVAL   =   4.00  6.00  1.00
  Atomic Wigner-Seitz radii
   RWIGS  =  -1.00 -1.00 -1.00
  virtual crystal weights 
   VCA    =   1.00  1.00  1.00
   NELECT =      24.0000    total number of electrons
   NUPDOWN=      -1.0000    fix difference up-down

 DOS related values:
   EMIN   =  10.00;   EMAX   =-10.00  energy-range for DOS
   EFERMI =   0.00
   ISMEAR =     0;   SIGMA  =   0.01  broadening in eV -4-tet -1-fermi 0-gaus

 Electronic relaxation 2 (details)
   IALGO  =     58    algorithm
   LDIAG  =      T    sub-space diagonalisation (order eigenvalues)
   LSUBROT=      F    optimize rotation matrix (better conditioning)
   TURBO    =      0    0=normal 1=particle mesh
   IRESTART =      0    0=no restart 2=restart with 2 vectors
   NREBOOT  =      0    no. of reboots
   NMIN     =      0    reboot dimension
   EREF     =   0.00    reference energy to select bands
   IMIX   =      4    mixing-type and parameters
     AMIX     =   0.40;   BMIX     =  1.00
     AMIX_MAG =   1.60;   BMIX_MAG =  1.00
     AMIN     =   0.10
     WC   =   100.;   INIMIX=   1;  MIXPRE=   1;  MAXMIX= -45

 Intra band minimization:
   WEIMIN = 0.0000     energy-eigenvalue tresh-hold
   EBREAK =  0.13E-08  absolut break condition
   DEPER  =   0.30     relativ break condition  

   TIME   =   0.40     timestep for ELM

  volume/ion in A,a.u.               =    5359.38     36166.85
  Fermi-wavevector in a.u.,A,eV,Ry     =   0.134920  0.254962  0.247673  0.018203
  Thomas-Fermi vector in A             =   0.783236
 
 Write flags
   LWAVE  =      F    write WAVECAR
   LCHARG =      T    write CHGCAR
   LVTOT  =      F    write LOCPOT, total local potential
   LVHAR  =      F    write LOCPOT, Hartree potential only
   LELF   =      F    write electronic localiz. function (ELF)
   LORBIT =      0    0 simple, 1 ext, 2 COOP (PROOUT)


 Dipole corrections
   LMONO  =      F    monopole corrections only (constant potential shift)
   LDIPOL =      F    correct potential (dipole corrections)
   IDIPOL =      4    1-x, 2-y, 3-z, 4-all directions 
   EPSILON=  1.0000000 bulk dielectric constant

 Exchange correlation treatment:
   GGA     =    --    GGA type
   LEXCH   =     8    internal setting for exchange type
   VOSKOWN=      0    Vosko Wilk Nusair interpolation
   EXXOEP  =     0    0=HF, 1=EXX-LHF (local Hartree Fock) 2=EXX OEP
   LHFCALC =     T    Hartree Fock is set to
   LSYMGRAD=     F    symmetrize gradient (conserves proper symmetry)
   PRECFOCK=normal    Normal, Fast or Accurate (Low or Medium for compatibility)
   LRHFCALC=     F    long range Hartree Fock
   LRSCOR  =     F    long range correlation only (use DFT for short range part)
   LTHOMAS =     F    Thomas Fermi screening in HF
   LMODELHF=     F    short range full HF, long range fraction AEXX
   ENCUT4O =  -1.0   cutoff for four orbital integrals eV
   LMAXFOCK=     4    L truncation for augmentation on plane wave grid
   LMAXFOCKAE=  -1    L truncation for all-electron charge restoration on plane wave grid
   NMAXFOCKAE=   1    number of basis functions for all-electron charge restoration
   LFOCKAEDFT=     F  apply the AE augmentation even for DFT
   NKREDX  =     1    reduce k-point grid by
   NKREDY  =     1    reduce k-point grid by
   NKREDZ  =     1    reduce k-point grid by
   SHIFTRED=     F    shift reduced grid of Gamma
   HFKIDENT=     F    idential grid for each k-point
   ODDONLY =     F    use only odd q-grid points
   EVENONLY=     F    use only even q-grid points
   HFALPHA =   -1.0000 decay constant for conv. correction
   MCALPHA =    0.0000 extent of test-charge in conv. correction in multipole expansion
   AEXX    =    1.0000 exact exchange contribution
   HFSCREEN=    0.0000 screening length (either q_TF or 0.3 A-1)
   HFSCREENC=   0.0000 screening length for correlation (either q_TF or 0.3 A-1)
   HFRCUT  =    0.0000 spherical cutoff for potential kernel
   ALDAX   =    0.0000 LDA exchange part
   AGGAX   =    0.0000 GGA exchange part
   ALDAC   =    0.0000 LDA correlation
   AGGAC   =    0.0000 GGA correlation
   NBANDSGWLOW=     1    first orbital included in HF term
   ENCUTFOCK=  -1.0 apply spherical cutoff to Coloumb kernel
 Linear response parameters
   LEPSILON=     F    determine dielectric tensor
   LRPA    =     F    only Hartree local field effects (RPA)
   LNABLA  =     F    use nabla operator in PAW spheres
   LVEL    =     F    velocity operator in full k-point grid
   LINTERFAST=   F  fast interpolation
   KINTER  =     0    interpolate to denser k-point grid
   CSHIFT  =0.1000    complex shift for real part using Kramers Kronig
   OMEGAMAX=  -1.0    maximum frequency
   DEG_THRESHOLD= 0.2000000E-02 threshold for treating states as degnerate
   RTIME   =    0.100 relaxation time in fs

 Orbital magnetization related:
   ORBITALMAG=     F  switch on orbital magnetization
   LCHIMAG   =     F  perturbation theory with respect to B field
   DQ        =  0.001000  dq finite difference perturbation B field



--------------------------------------------------------------------------------------------------------


 Static calculation
 charge density and potential will be updated during run
 non-spin polarized calculation
 Conjugate gradient for all bands (Freysoldt, et al. PRB 79, 241103 (2009))
 preconditioned conjugated gradient                                        
 perform sub-space diagonalisation
    before iterative eigenvector-optimisation
 modified Broyden-mixing scheme, WC =      100.0
 initial mixing is a Kerker type mixing with AMIX =  0.4000 and BMIX =      1.0000
 Hartree-type preconditioning will be used
 using additional bands            8
 reciprocal scheme for non local part
 no Harris-corrections to forces 
 use gradient corrections 
 use of overlap-Matrix (Vanderbilt PP)
 Gauss-broadening in eV      SIGMA  =   0.01


--------------------------------------------------------------------------------------------------------


  energy-cutoff  :     1000.00
  volume of cell :    42875.00
      direct lattice vectors                 reciprocal lattice vectors
    35.000000000  0.000000000  0.000000000     0.028571429  0.000000000  0.000000000
     0.000000000 35.000000000  0.000000000     0.000000000  0.028571429  0.000000000
     0.000000000  0.000000000 35.000000000     0.000000000  0.000000000  0.028571429

  length of vectors
    35.000000000 35.000000000 35.000000000     0.028571429  0.028571429  0.028571429


 
 old parameters found on file WAVECAR:
  energy-cutoff  :     1000.00
  volume of cell :    42875.00
      direct lattice vectors                 reciprocal lattice vectors
    35.000000000  0.000000000  0.000000000     0.028571429  0.000000000  0.000000000
     0.000000000 35.000000000  0.000000000     0.000000000  0.028571429  0.000000000
     0.000000000  0.000000000 35.000000000     0.000000000  0.000000000  0.028571429

  length of vectors

 
 k-points in units of 2pi/SCALE and weight: automatic mesh                          
   0.00000000  0.00000000  0.00000000       1.000
 
 k-points in reciprocal lattice and weights: automatic mesh                          
   0.00000000  0.00000000  0.00000000       1.000
 
 position of ions in fractional coordinates (direct lattice) 
   0.01194916  0.99226987  0.11519277
   0.98275247  0.02209649  0.10603045
   0.04610609  0.99695418  0.11737894
   0.99539197  0.95765830  0.12089101
   0.01637628  0.94048378  0.12640639
   0.99641802  0.04983781  0.10469266
   0.96981532  0.01543374  0.07852451
   0.96032815  0.02193830  0.12753044
 
 position of ions in cartesian coordinates  (Angst):
   0.41822061 34.72944560  4.03174704
  34.39633638  0.77337712  3.71106586
   1.61371328 34.89339635  4.10826282
  34.83871894 33.51804064  4.23118539
   0.57316979 32.91693215  4.42422351
  34.87463080  1.74432347  3.66424309
  33.94353628  0.54018093  2.74835781
  33.61148537  0.76784062  4.46356534
 


--------------------------------------------------------------------------------------------------------


 use parallel FFT for wavefunctions z direction half grid
 k-point  1 :   0.0000 0.0000 0.0000  plane waves: 1539209

 maximum and minimum number of plane-waves per node :    192406   192397

 maximum number of plane-waves:   1539209
 maximum index in each direction: 
   IXMAX=   90   IYMAX=   90   IZMAX=   90
   IXMIN=  -90   IYMIN=  -90   IZMIN=    0

 NGX is ok and might be reduce to 362
 NGY is ok and might be reduce to 362
 NGZ is ok and might be reduce to 362

 parallel 3D FFT for wavefunctions:
    minimum data exchange during FFTs selected (reduces bandwidth)
 parallel 3D FFT for charge:
    minimum data exchange during FFTs selected (reduces bandwidth)


 FFT grid for exact exchange (Hartree Fock) 
  NGX =280; NGY =280; NGZ =280

 use parallel FFT for wavefunctions z direction half grid
 
 Radii for the augmentation spheres in the non-local exchange
 for species   1 augmentation radius   1.059 (default was   0.847)
       energy cutoff for augmentation   4000.0
 for species   2 augmentation radius   1.093 (default was   0.874)
       energy cutoff for augmentation   4000.0
 for species   3 augmentation radius   0.782 (default was   0.626)
       energy cutoff for augmentation   4000.0

 real space projection operators:
  total allocation   :       1041.75 KBytes
  max/ min on nodes  :        135.84        125.30

 Maximum index for augmentation-charges in exchange          378
  SETUP_FOCK is finished

 total amount of memory used by VASP on root node  1985462. kBytes
========================================================================

   base      :      30000. kBytes
   nonl-proj :      61570. kBytes
   fftplans  :     693297. kBytes
   grid      :    1154248. kBytes
   one-center:          1. kBytes
   HF        :          4. kBytes
   nonlr-proj:        166. kBytes
   wavefun   :      46176. kBytes
 
     INWAV:  cpu time    1.5739: real time    1.6135
 Broyden mixing: mesh for mixing (old mesh)
   NGX =181   NGY =181   NGZ =181
  (NGX  =756   NGY  =756   NGZ  =756)
  gives a total of ****** points

 charge density for first step will be calculated from the start-wavefunctions


--------------------------------------------------------------------------------------------------------


 Maximum index for augmentation-charges         1417 (set IRDMAX)


--------------------------------------------------------------------------------------------------------


 initial charge from wavefunction
 FEWALD executed in parallel
    FEWALD:  cpu time    0.0022: real time    0.0022


----------------------------------------- Iteration    1(   1)  ---------------------------------------


    POTLOK:  cpu time    8.1252: real time    8.1503
    SETDIJ:  cpu time    0.0498: real time    0.0500
    TRIAL :  cpu time   13.9128: real time   13.9808
    CORREC:  cpu time   21.3271: real time   21.4146
    CHARGE:  cpu time    1.0562: real time    1.0605
    --------------------------------------------
      LOOP:  cpu time   44.5186: real time   44.7050

 eigenvalue-minimisations  :     0
 total energy-change (2. order) :-0.8783983E+02  (-0.6717588E+00)
 number of electron      24.0000001 magnetization 
 augmentation part        2.9212747 magnetization 

 Free energy of the ion-electron system (eV)
  ---------------------------------------------------
  alpha Z        PSCENC =         0.03925812
  Ewald energy   TEWEN  =      1513.97665736
  -Hartree energ DENC   =     -2518.71677131
  -exchange      EXHF   =       289.54218891
  -V(xc)+E(xc)   XCENC  =         0.00000000
  PAW double counting   =      6604.62573117    -6604.52514635
  entropy T*S    EENTRO =        -0.00000000
  eigenvalues    EBANDS =      -507.61921407
  atomic energy  EATOM  =      1134.83746689
  ---------------------------------------------------
  free energy    TOTEN  =       -87.83982926 eV

  energy without entropy =      -87.83982926  energy(sigma->0) =      -87.83982926
  exchange ACFDT corr.  =         0.00000000  see jH, gK, PRB 81, 115126


--------------------------------------------------------------------------------------------------------




----------------------------------------- Iteration    1(   2)  ---------------------------------------


    POTLOK:  cpu time    8.1053: real time    8.1251
    SETDIJ:  cpu time    0.0494: real time    0.0495
    TRIAL :  cpu time   13.9388: real time   14.0061
    CORREC:  cpu time   21.3569: real time   21.4437
    CHARGE:  cpu time    1.0591: real time    1.0633
    --------------------------------------------
      LOOP:  cpu time   44.5142: real time   44.6953

 eigenvalue-minimisations  :     0
 total energy-change (2. order) :-0.6694474E+00  (-0.2866697E+00)
 number of electron      24.0000001 magnetization 
 augmentation part        2.9228312 magnetization 

 Free energy of the ion-electron system (eV)
  ---------------------------------------------------
  alpha Z        PSCENC =         0.03925812
  Ewald energy   TEWEN  =      1513.97665736
  -Hartree energ DENC   =     -2513.66399985
  -exchange      EXHF   =       290.41905272
  -V(xc)+E(xc)   XCENC  =         0.00000000
  PAW double counting   =      9444.95504109    -9444.65402323
  entropy T*S    EENTRO =        -0.00000000
  eigenvalues    EBANDS =      -514.41872983
  atomic energy  EATOM  =      1134.83746689
  ---------------------------------------------------
  free energy    TOTEN  =       -88.50927670 eV

  energy without entropy =      -88.50927670  energy(sigma->0) =      -88.50927670
  exchange ACFDT corr.  =         0.00000000  see jH, gK, PRB 81, 115126


--------------------------------------------------------------------------------------------------------




----------------------------------------- Iteration    1(   3)  ---------------------------------------


    POTLOK:  cpu time    8.1041: real time    8.1239
    SETDIJ:  cpu time    0.0504: real time    0.0505
    TRIAL :  cpu time   13.9411: real time   14.0087
    CORREC:  cpu time   21.4151: real time   21.5024
    CHARGE:  cpu time    1.0567: real time    1.0610
    --------------------------------------------
      LOOP:  cpu time   44.5696: real time   44.7513

 eigenvalue-minimisations  :     0
 total energy-change (2. order) :-0.2902775E+00  (-0.8314167E-01)
 number of electron      24.0000001 magnetization 
 augmentation part        2.9459844 magnetization 

 Free energy of the ion-electron system (eV)
  ---------------------------------------------------
  alpha Z        PSCENC =         0.03925812
  Ewald energy   TEWEN  =      1513.97665736
  -Hartree energ DENC   =     -2517.05038915
  -exchange      EXHF   =       291.41505560
  -V(xc)+E(xc)   XCENC  =         0.00000000
  PAW double counting   =      9082.57407914    -9082.04475602
  entropy T*S    EENTRO =        -0.00000000
  eigenvalues    EBANDS =      -512.54692616
  atomic energy  EATOM  =      1134.83746689
  ---------------------------------------------------
  free energy    TOTEN  =       -88.79955421 eV

  energy without entropy =      -88.79955421  energy(sigma->0) =      -88.79955421
  exchange ACFDT corr.  =         0.00000000  see jH, gK, PRB 81, 115126


--------------------------------------------------------------------------------------------------------




----------------------------------------- Iteration    1(   4)  ---------------------------------------


    POTLOK:  cpu time    8.1034: real time    8.1231
    SETDIJ:  cpu time    0.0497: real time    0.0498
    TRIAL :  cpu time   13.8709: real time   13.9380
    CORREC:  cpu time   21.3546: real time   21.4420
    CHARGE:  cpu time    1.0616: real time    1.0659
    --------------------------------------------
      LOOP:  cpu time   44.4443: real time   44.6259

 eigenvalue-minimisations  :     0
 total energy-change (2. order) :-0.8283138E-01  (-0.5109587E-01)
 number of electron      24.0000001 magnetization 
 augmentation part        2.9545368 magnetization 

 Free energy of the ion-electron system (eV)
  ---------------------------------------------------
  alpha Z        PSCENC =         0.03925812
  Ewald energy   TEWEN  =      1513.97665736
  -Hartree energ DENC   =     -2519.43512962
  -exchange      EXHF   =       291.97635954
  -V(xc)+E(xc)   XCENC  =         0.00000000
  PAW double counting   =      8772.42256900    -8771.87270010
  entropy T*S    EENTRO =        -0.00000000
  eigenvalues    EBANDS =      -510.82686678
  atomic energy  EATOM  =      1134.83746689
  ---------------------------------------------------
  free energy    TOTEN  =       -88.88238558 eV

  energy without entropy =      -88.88238558  energy(sigma->0) =      -88.88238558
  exchange ACFDT corr.  =         0.00000000  see jH, gK, PRB 81, 115126


--------------------------------------------------------------------------------------------------------




----------------------------------------- Iteration    1(   5)  ---------------------------------------


    POTLOK:  cpu time    8.1012: real time    8.1209
    SETDIJ:  cpu time    0.0507: real time    0.0508
    TRIAL :  cpu time   13.9031: real time   13.9703
    CORREC:  cpu time   21.3919: real time   21.4783
    CHARGE:  cpu time    1.0577: real time    1.0620
    --------------------------------------------
      LOOP:  cpu time   44.5068: real time   44.6873

 eigenvalue-minimisations  :     0
 total energy-change (2. order) :-0.5155667E-01  (-0.1884263E-01)
 number of electron      24.0000001 magnetization 
 augmentation part        2.9569232 magnetization 

 Free energy of the ion-electron system (eV)
  ---------------------------------------------------
  alpha Z        PSCENC =         0.03925812
  Ewald energy   TEWEN  =      1513.97665736
  -Hartree energ DENC   =     -2518.34704668
  -exchange      EXHF   =       292.05153706
  -V(xc)+E(xc)   XCENC  =         0.00000000
  PAW double counting   =      8917.33898377    -8916.87441430
  entropy T*S    EENTRO =        -0.00000000
  eigenvalues    EBANDS =      -511.95638449
  atomic energy  EATOM  =      1134.83746689
  ---------------------------------------------------
  free energy    TOTEN  =       -88.93394225 eV

  energy without entropy =      -88.93394225  energy(sigma->0) =      -88.93394225
  exchange ACFDT corr.  =        -0.00000000  see jH, gK, PRB 81, 115126


--------------------------------------------------------------------------------------------------------




----------------------------------------- Iteration    1(   6)  ---------------------------------------


    POTLOK:  cpu time    8.0879: real time    8.1076
    SETDIJ:  cpu time    0.0503: real time    0.0505
    TRIAL :  cpu time   13.8669: real time   13.9339
    CORREC:  cpu time   21.3847: real time   21.4724
    CHARGE:  cpu time    1.0576: real time    1.0619
    --------------------------------------------
      LOOP:  cpu time   44.4500: real time   44.6318

 eigenvalue-minimisations  :     0
 total energy-change (2. order) :-0.1885044E-01  (-0.1153610E-01)
 number of electron      24.0000001 magnetization 
 augmentation part        2.9583258 magnetization 

 Free energy of the ion-electron system (eV)
  ---------------------------------------------------
  alpha Z        PSCENC =         0.03925812
  Ewald energy   TEWEN  =      1513.97665736
  -Hartree energ DENC   =     -2518.03651516
  -exchange      EXHF   =       292.07662721
  -V(xc)+E(xc)   XCENC  =         0.00000000
  PAW double counting   =      8911.43384052    -8911.00686636
  entropy T*S    EENTRO =        -0.00000000
  eigenvalues    EBANDS =      -512.27326129
  atomic energy  EATOM  =      1134.83746689
  ---------------------------------------------------
  free energy    TOTEN  =       -88.95279269 eV

  energy without entropy =      -88.95279269  energy(sigma->0) =      -88.95279269
  exchange ACFDT corr.  =         0.00000000  see jH, gK, PRB 81, 115126


--------------------------------------------------------------------------------------------------------




----------------------------------------- Iteration    1(   7)  ---------------------------------------


    POTLOK:  cpu time    8.1116: real time    8.1314
    SETDIJ:  cpu time    0.0497: real time    0.0498
    TRIAL :  cpu time   13.8751: real time   13.9426
    CORREC:  cpu time   21.4035: real time   21.4909
    CHARGE:  cpu time    1.0563: real time    1.0606
    --------------------------------------------
      LOOP:  cpu time   44.5013: real time   44.6835

 eigenvalue-minimisations  :     0
 total energy-change (2. order) :-0.1159820E-01  (-0.7361055E-02)
 number of electron      24.0000001 magnetization 
 augmentation part        2.9577177 magnetization 

 Free energy of the ion-electron system (eV)
  ---------------------------------------------------
  alpha Z        PSCENC =         0.03925812
  Ewald energy   TEWEN  =      1513.97665736
  -Hartree energ DENC   =     -2518.73187421
  -exchange      EXHF   =       292.22429847
  -V(xc)+E(xc)   XCENC  =         0.00000000
  PAW double counting   =      8881.73351131    -8881.30930101
  entropy T*S    EENTRO =        -0.00000000
  eigenvalues    EBANDS =      -511.73440784
  atomic energy  EATOM  =      1134.83746689
  ---------------------------------------------------
  free energy    TOTEN  =       -88.96439089 eV

  energy without entropy =      -88.96439089  energy(sigma->0) =      -88.96439089
  exchange ACFDT corr.  =         0.00000000  see jH, gK, PRB 81, 115126


--------------------------------------------------------------------------------------------------------




----------------------------------------- Iteration    1(   8)  ---------------------------------------


    POTLOK:  cpu time    8.1031: real time    8.1228
    SETDIJ:  cpu time    0.0506: real time    0.0507
    TRIAL :  cpu time   13.8126: real time   13.8791
    CORREC:  cpu time   21.3987: real time   21.4864
    CHARGE:  cpu time    1.0539: real time    1.0583
    --------------------------------------------
      LOOP:  cpu time   44.4237: real time   44.6050

 eigenvalue-minimisations  :     0
 total energy-change (2. order) :-0.7454424E-02  (-0.3657011E-02)
 number of electron      24.0000001 magnetization 
 augmentation part        2.9565368 magnetization 

 Free energy of the ion-electron system (eV)
  ---------------------------------------------------
  alpha Z        PSCENC =         0.03925812
  Ewald energy   TEWEN  =      1513.97665736
  -Hartree energ DENC   =     -2518.88917572
  -exchange      EXHF   =       292.28867567
  -V(xc)+E(xc)   XCENC  =         0.00000000
  PAW double counting   =      8896.94949603    -8896.52039505
  entropy T*S    EENTRO =        -0.00000000
  eigenvalues    EBANDS =      -511.65382862
  atomic energy  EATOM  =      1134.83746689
  ---------------------------------------------------
  free energy    TOTEN  =       -88.97184531 eV

  energy without entropy =      -88.97184531  energy(sigma->0) =      -88.97184531
  exchange ACFDT corr.  =         0.00000000  see jH, gK, PRB 81, 115126


--------------------------------------------------------------------------------------------------------




----------------------------------------- Iteration    1(   9)  ---------------------------------------


    POTLOK:  cpu time    8.1103: real time    8.1301
    SETDIJ:  cpu time    0.0503: real time    0.0505
    TRIAL :  cpu time   13.8689: real time   13.9357
    CORREC:  cpu time   22.3518: real time   22.4422
    CHARGE:  cpu time    1.0584: real time    1.0627
    --------------------------------------------
      LOOP:  cpu time   45.4448: real time   45.6290

 eigenvalue-minimisations  :     0
 total energy-change (2. order) :-0.3674069E-02  (-0.1669593E-02)
 number of electron      24.0000001 magnetization 
 augmentation part        2.9565887 magnetization 

 Free energy of the ion-electron system (eV)
  ---------------------------------------------------
  alpha Z        PSCENC =         0.03925812
  Ewald energy   TEWEN  =      1513.97665736
  -Hartree energ DENC   =     -2518.43205800
  -exchange      EXHF   =       292.25006618
  -V(xc)+E(xc)   XCENC  =         0.00000000
  PAW double counting   =      8895.85288687    -8895.42349182
  entropy T*S    EENTRO =        -0.00000000
  eigenvalues    EBANDS =      -512.07630499
  atomic energy  EATOM  =      1134.83746689
  ---------------------------------------------------
  free energy    TOTEN  =       -88.97551938 eV

  energy without entropy =      -88.97551938  energy(sigma->0) =      -88.97551938
  exchange ACFDT corr.  =        -0.00000000  see jH, gK, PRB 81, 115126


--------------------------------------------------------------------------------------------------------




----------------------------------------- Iteration    1(  10)  ---------------------------------------


    POTLOK:  cpu time    8.5770: real time    8.5979
    SETDIJ:  cpu time    0.1041: real time    0.1044
    TRIAL :  cpu time   14.0459: real time   14.1141
    CORREC:  cpu time   22.0306: real time   22.1187
    CHARGE:  cpu time    1.0607: real time    1.0652
    --------------------------------------------
      LOOP:  cpu time   45.8364: real time   46.0207

 eigenvalue-minimisations  :     0
 total energy-change (2. order) :-0.1674718E-02  (-0.7464494E-03)
 number of electron      24.0000001 magnetization 
 augmentation part        2.9563722 magnetization 

 Free energy of the ion-electron system (eV)
  ---------------------------------------------------
  alpha Z        PSCENC =         0.03925812
  Ewald energy   TEWEN  =      1513.97665736
  -Hartree energ DENC   =     -2518.52565593
  -exchange      EXHF   =       292.27547987
  -V(xc)+E(xc)   XCENC  =         0.00000000
  PAW double counting   =      8877.98162704    -8877.55019298
  entropy T*S    EENTRO =        -0.00000000
  eigenvalues    EBANDS =      -512.01183448
  atomic energy  EATOM  =      1134.83746689
  ---------------------------------------------------
  free energy    TOTEN  =       -88.97719410 eV

  energy without entropy =      -88.97719410  energy(sigma->0) =      -88.97719410
  exchange ACFDT corr.  =         0.00000000  see jH, gK, PRB 81, 115126


--------------------------------------------------------------------------------------------------------




----------------------------------------- Iteration    1(  11)  ---------------------------------------


    POTLOK:  cpu time    8.5772: real time    8.5982
    SETDIJ:  cpu time    0.1044: real time    0.1047
    TRIAL :  cpu time   14.0286: real time   14.0966
    CORREC:  cpu time   22.0612: real time   22.1516
    CHARGE:  cpu time    1.0594: real time    1.0638
    --------------------------------------------
      LOOP:  cpu time   45.8487: real time   46.0353

 eigenvalue-minimisations  :     0
 total energy-change (2. order) :-0.7497920E-03  (-0.2876882E-03)
 number of electron      24.0000001 magnetization 
 augmentation part        2.9559190 magnetization 

 Free energy of the ion-electron system (eV)
  ---------------------------------------------------
  alpha Z        PSCENC =         0.03925812
  Ewald energy   TEWEN  =      1513.97665736
  -Hartree energ DENC   =     -2518.69659888
  -exchange      EXHF   =       292.30079703
  -V(xc)+E(xc)   XCENC  =         0.00000000
  PAW double counting   =      8881.50007271    -8881.06809782
  entropy T*S    EENTRO =        -0.00000000
  eigenvalues    EBANDS =      -511.86749930
  atomic energy  EATOM  =      1134.83746689
  ---------------------------------------------------
  free energy    TOTEN  =       -88.97794389 eV

  energy without entropy =      -88.97794389  energy(sigma->0) =      -88.97794389
  exchange ACFDT corr.  =         0.00000000  see jH, gK, PRB 81, 115126


--------------------------------------------------------------------------------------------------------




----------------------------------------- Iteration    1(  12)  ---------------------------------------


    POTLOK:  cpu time    8.5883: real time    8.6092
    SETDIJ:  cpu time    0.1033: real time    0.1035
    TRIAL :  cpu time   14.1601: real time   14.2288
    CORREC:  cpu time   22.0186: real time   22.1075
    CHARGE:  cpu time    1.0594: real time    1.0637
    --------------------------------------------
      LOOP:  cpu time   45.9486: real time   46.1347

 eigenvalue-minimisations  :     0
 total energy-change (2. order) :-0.2877446E-03  (-0.1229649E-03)
 number of electron      24.0000001 magnetization 
 augmentation part        2.9559908 magnetization 

 Free energy of the ion-electron system (eV)
  ---------------------------------------------------
  alpha Z        PSCENC =         0.03925812
  Ewald energy   TEWEN  =      1513.97665736
  -Hartree energ DENC   =     -2518.61582911
  -exchange      EXHF   =       292.28832096
  -V(xc)+E(xc)   XCENC  =         0.00000000
  PAW double counting   =      8888.73374450    -8888.30283425
  entropy T*S    EENTRO =        -0.00000000
  eigenvalues    EBANDS =      -511.93501612
  atomic energy  EATOM  =      1134.83746689
  ---------------------------------------------------
  free energy    TOTEN  =       -88.97823164 eV

  energy without entropy =      -88.97823164  energy(sigma->0) =      -88.97823164
  exchange ACFDT corr.  =         0.00000000  see jH, gK, PRB 81, 115126


--------------------------------------------------------------------------------------------------------




----------------------------------------- Iteration    1(  13)  ---------------------------------------


    POTLOK:  cpu time    8.5694: real time    8.5903
    SETDIJ:  cpu time    0.1047: real time    0.1050
    TRIAL :  cpu time   14.0020: real time   14.0700
    CORREC:  cpu time   22.0641: real time   22.1530
    CHARGE:  cpu time    1.0554: real time    1.0596
    --------------------------------------------
      LOOP:  cpu time   45.8150: real time   45.9999

 eigenvalue-minimisations  :     0
 total energy-change (2. order) :-0.1231346E-03  (-0.4917683E-04)
 number of electron      24.0000001 magnetization 
 augmentation part        2.9560712 magnetization 

 Free energy of the ion-electron system (eV)
  ---------------------------------------------------
  alpha Z        PSCENC =         0.03925812
  Ewald energy   TEWEN  =      1513.97665736
  -Hartree energ DENC   =     -2518.56149564
  -exchange      EXHF   =       292.27952047
  -V(xc)+E(xc)   XCENC  =         0.00000000
  PAW double counting   =      8881.28522853    -8880.85436090
  entropy T*S    EENTRO =        -0.00000000
  eigenvalues    EBANDS =      -511.98062961
  atomic energy  EATOM  =      1134.83746689
  ---------------------------------------------------
  free energy    TOTEN  =       -88.97835477 eV

  energy without entropy =      -88.97835477  energy(sigma->0) =      -88.97835477
  exchange ACFDT corr.  =         0.00000000  see jH, gK, PRB 81, 115126


--------------------------------------------------------------------------------------------------------




----------------------------------------- Iteration    1(  14)  ---------------------------------------


    POTLOK:  cpu time    8.5706: real time    8.5916
    SETDIJ:  cpu time    0.1045: real time    0.1048
    TRIAL :  cpu time   14.0995: real time   14.1661
    CORREC:  cpu time   22.0943: real time   22.1831
    CHARGE:  cpu time    1.0589: real time    1.0633
    --------------------------------------------
      LOOP:  cpu time   45.9472: real time   46.1307

 eigenvalue-minimisations  :     0
 total energy-change (2. order) :-0.4922481E-04  (-0.1901897E-04)
 number of electron      24.0000001 magnetization 
 augmentation part        2.9559344 magnetization 

 Free energy of the ion-electron system (eV)
  ---------------------------------------------------
  alpha Z        PSCENC =         0.03925812
  Ewald energy   TEWEN  =      1513.97665736
  -Hartree energ DENC   =     -2518.57624564
  -exchange      EXHF   =       292.28055158
  -V(xc)+E(xc)   XCENC  =         0.00000000
  PAW double counting   =      8877.87151075    -8877.44031879
  entropy T*S    EENTRO =        -0.00000000
  eigenvalues    EBANDS =      -511.96728427
  atomic energy  EATOM  =      1134.83746689
  ---------------------------------------------------
  free energy    TOTEN  =       -88.97840400 eV

  energy without entropy =      -88.97840400  energy(sigma->0) =      -88.97840400
  exchange ACFDT corr.  =         0.00000000  see jH, gK, PRB 81, 115126


--------------------------------------------------------------------------------------------------------




----------------------------------------- Iteration    1(  15)  ---------------------------------------


    POTLOK:  cpu time    8.5782: real time    8.5992
    SETDIJ:  cpu time    0.1041: real time    0.1043
    TRIAL :  cpu time   14.0143: real time   14.0824
    CORREC:  cpu time   22.0654: real time   22.1549
    CHARGE:  cpu time    1.0573: real time    1.0616
    --------------------------------------------
      LOOP:  cpu time   45.8392: real time   46.0250

 eigenvalue-minimisations  :     0
 total energy-change (2. order) :-0.1902234E-04  (-0.7851222E-05)
 number of electron      24.0000001 magnetization 
 augmentation part        2.9558854 magnetization 

 Free energy of the ion-electron system (eV)
  ---------------------------------------------------
  alpha Z        PSCENC =         0.03925812
  Ewald energy   TEWEN  =      1513.97665736
  -Hartree energ DENC   =     -2518.56891804
  -exchange      EXHF   =       292.27984253
  -V(xc)+E(xc)   XCENC  =         0.00000000
  PAW double counting   =      8881.41026735    -8880.97886136
  entropy T*S    EENTRO =        -0.00000000
  eigenvalues    EBANDS =      -511.97413588
  atomic energy  EATOM  =      1134.83746689
  ---------------------------------------------------
  free energy    TOTEN  =       -88.97842302 eV

  energy without entropy =      -88.97842302  energy(sigma->0) =      -88.97842302
  exchange ACFDT corr.  =         0.00000000  see jH, gK, PRB 81, 115126


--------------------------------------------------------------------------------------------------------




----------------------------------------- Iteration    1(  16)  ---------------------------------------


    POTLOK:  cpu time    8.5705: real time    8.5915
    SETDIJ:  cpu time    0.1043: real time    0.1045
    TRIAL :  cpu time   14.0838: real time   14.1514
    CORREC:  cpu time   21.9447: real time   22.0339
    CHARGE:  cpu time    1.0581: real time    1.0624
    --------------------------------------------
      LOOP:  cpu time   45.7782: real time   45.9634

 eigenvalue-minimisations  :     0
 total energy-change (2. order) :-0.7854875E-05  (-0.2770698E-05)
 number of electron      24.0000001 magnetization 
 augmentation part        2.9559413 magnetization 

 Free energy of the ion-electron system (eV)
  ---------------------------------------------------
  alpha Z        PSCENC =         0.03925812
  Ewald energy   TEWEN  =      1513.97665736
  -Hartree energ DENC   =     -2518.56307025
  -exchange      EXHF   =       292.27964422
  -V(xc)+E(xc)   XCENC  =         0.00000000
  PAW double counting   =      8882.56572397    -8882.13394133
  entropy T*S    EENTRO =        -0.00000000
  eigenvalues    EBANDS =      -511.98016985
  atomic energy  EATOM  =      1134.83746689
  ---------------------------------------------------
  free energy    TOTEN  =       -88.97843087 eV

  energy without entropy =      -88.97843087  energy(sigma->0) =      -88.97843087
  exchange ACFDT corr.  =         0.00000000  see jH, gK, PRB 81, 115126


--------------------------------------------------------------------------------------------------------




----------------------------------------- Iteration    1(  17)  ---------------------------------------


    POTLOK:  cpu time    8.5717: real time    8.5926
    SETDIJ:  cpu time    0.1037: real time    0.1040
    TRIAL :  cpu time   14.4598: real time   14.5281
    CORREC:  cpu time   22.1902: real time   22.2792
    CHARGE:  cpu time    1.0629: real time    1.0673
    --------------------------------------------
      LOOP:  cpu time   46.4074: real time   46.5925

 eigenvalue-minimisations  :     0
 total energy-change (2. order) :-0.2772617E-05  (-0.1065327E-05)
 number of electron      24.0000001 magnetization 
 augmentation part        2.9559491 magnetization 

 Free energy of the ion-electron system (eV)
  ---------------------------------------------------
  alpha Z        PSCENC =         0.03925812
  Ewald energy   TEWEN  =      1513.97665736
  -Hartree energ DENC   =     -2518.56793859
  -exchange      EXHF   =       292.28051330
  -V(xc)+E(xc)   XCENC  =         0.00000000
  PAW double counting   =      8881.59013310    -8881.15818710
  entropy T*S    EENTRO =        -0.00000000
  eigenvalues    EBANDS =      -511.97633674
  atomic energy  EATOM  =      1134.83746689
  ---------------------------------------------------
  free energy    TOTEN  =       -88.97843365 eV

  energy without entropy =      -88.97843365  energy(sigma->0) =      -88.97843365
  exchange ACFDT corr.  =         0.00000000  see jH, gK, PRB 81, 115126


--------------------------------------------------------------------------------------------------------




----------------------------------------- Iteration    1(  18)  ---------------------------------------


    POTLOK:  cpu time    8.7916: real time    8.8131
    SETDIJ:  cpu time    0.1138: real time    0.1141
    TRIAL :  cpu time   14.0827: real time   14.1509
    CORREC:  cpu time   22.1756: real time   22.2654
    CHARGE:  cpu time    1.0598: real time    1.0642
    --------------------------------------------
      LOOP:  cpu time   46.2430: real time   46.4301

 eigenvalue-minimisations  :     0
 total energy-change (2. order) :-0.1065318E-05  (-0.4692840E-06)
 number of electron      24.0000001 magnetization 
 augmentation part        2.9559550 magnetization 

 Free energy of the ion-electron system (eV)
  ---------------------------------------------------
  alpha Z        PSCENC =         0.03925812
  Ewald energy   TEWEN  =      1513.97665736
  -Hartree energ DENC   =     -2518.56491877
  -exchange      EXHF   =       292.28019711
  -V(xc)+E(xc)   XCENC  =         0.00000000
  PAW double counting   =      8881.70216453    -8881.27022985
  entropy T*S    EENTRO =        -0.00000000
  eigenvalues    EBANDS =      -511.97903010
  atomic energy  EATOM  =      1134.83746689
  ---------------------------------------------------
  free energy    TOTEN  =       -88.97843471 eV

  energy without entropy =      -88.97843471  energy(sigma->0) =      -88.97843471
  exchange ACFDT corr.  =         0.00000000  see jH, gK, PRB 81, 115126


--------------------------------------------------------------------------------------------------------




----------------------------------------- Iteration    1(  19)  ---------------------------------------


    POTLOK:  cpu time    8.7813: real time    8.8026
    SETDIJ:  cpu time    0.1144: real time    0.1147
    TRIAL :  cpu time   14.1773: real time   14.2456
    CORREC:  cpu time   22.1790: real time   22.2678
    CHARGE:  cpu time    1.0625: real time    1.0672
    --------------------------------------------
      LOOP:  cpu time   46.3352: real time   46.5209

 eigenvalue-minimisations  :     0
 total energy-change (2. order) :-0.4693115E-06  (-0.2151498E-06)
 number of electron      24.0000001 magnetization 
 augmentation part        2.9559639 magnetization 

 Free energy of the ion-electron system (eV)
  ---------------------------------------------------
  alpha Z        PSCENC =         0.03925812
  Ewald energy   TEWEN  =      1513.97665736
  -Hartree energ DENC   =     -2518.56309729
  -exchange      EXHF   =       292.27993579
  -V(xc)+E(xc)   XCENC  =         0.00000000
  PAW double counting   =      8881.88315753    -8881.45128371
  entropy T*S    EENTRO =        -0.00000000
  eigenvalues    EBANDS =      -511.98052987
  atomic energy  EATOM  =      1134.83746689
  ---------------------------------------------------
  free energy    TOTEN  =       -88.97843518 eV

  energy without entropy =      -88.97843518  energy(sigma->0) =      -88.97843518
  exchange ACFDT corr.  =         0.00000000  see jH, gK, PRB 81, 115126


--------------------------------------------------------------------------------------------------------




----------------------------------------- Iteration    1(  20)  ---------------------------------------


    POTLOK:  cpu time    8.7866: real time    8.8081
    SETDIJ:  cpu time    0.1146: real time    0.1149
    TRIAL :  cpu time   14.0815: real time   14.1493
    CORREC:  cpu time   22.1688: real time   22.2584
    CHARGE:  cpu time    1.0643: real time    1.0686
    --------------------------------------------
      LOOP:  cpu time   46.2356: real time   46.4217

 eigenvalue-minimisations  :     0
 total energy-change (2. order) :-0.2153040E-06  (-0.1009147E-06)
 number of electron      24.0000001 magnetization 
 augmentation part        2.9559619 magnetization 

 Free energy of the ion-electron system (eV)
  ---------------------------------------------------
  alpha Z        PSCENC =         0.03925812
  Ewald energy   TEWEN  =      1513.97665736
  -Hartree energ DENC   =     -2518.56423153
  -exchange      EXHF   =       292.28005536
  -V(xc)+E(xc)   XCENC  =         0.00000000
  PAW double counting   =      8881.86640314    -8881.43458105
  entropy T*S    EENTRO =        -0.00000000
  eigenvalues    EBANDS =      -511.97946369
  atomic energy  EATOM  =      1134.83746689
  ---------------------------------------------------
  free energy    TOTEN  =       -88.97843540 eV

  energy without entropy =      -88.97843540  energy(sigma->0) =      -88.97843540
  exchange ACFDT corr.  =         0.00000000  see jH, gK, PRB 81, 115126


--------------------------------------------------------------------------------------------------------




----------------------------------------- Iteration    1(  21)  ---------------------------------------


    POTLOK:  cpu time    8.7935: real time    8.8150
    SETDIJ:  cpu time    0.1139: real time    0.1142
    TRIAL :  cpu time   14.0541: real time   14.1225
    CORREC:  cpu time   22.1927: real time   22.2828
    CHARGE:  cpu time    1.0643: real time    1.0686
    --------------------------------------------
      LOOP:  cpu time   46.2379: real time   46.4251

 eigenvalue-minimisations  :     0
 total energy-change (2. order) :-0.1009369E-06  (-0.4692009E-07)
 number of electron      24.0000001 magnetization 
 augmentation part        2.9559621 magnetization 

 Free energy of the ion-electron system (eV)
  ---------------------------------------------------
  alpha Z        PSCENC =         0.03925812
  Ewald energy   TEWEN  =      1513.97665736
  -Hartree energ DENC   =     -2518.56407959
  -exchange      EXHF   =       292.27994369
  -V(xc)+E(xc)   XCENC  =         0.00000000
  PAW double counting   =      8881.85148545    -8881.41967157
  entropy T*S    EENTRO =        -0.00000000
  eigenvalues    EBANDS =      -511.97949585
  atomic energy  EATOM  =      1134.83746689
  ---------------------------------------------------
  free energy    TOTEN  =       -88.97843550 eV

  energy without entropy =      -88.97843550  energy(sigma->0) =      -88.97843550
  exchange ACFDT corr.  =         0.00000000  see jH, gK, PRB 81, 115126


--------------------------------------------------------------------------------------------------------




----------------------------------------- Iteration    1(  22)  ---------------------------------------


    POTLOK:  cpu time    8.7865: real time    8.8079
    SETDIJ:  cpu time    0.1132: real time    0.1135
    TRIAL :  cpu time   14.0271: real time   14.0958
    CORREC:  cpu time   22.2323: real time   22.3224
    CHARGE:  cpu time    1.0642: real time    1.0685
    --------------------------------------------
      LOOP:  cpu time   46.2439: real time   46.4311

 eigenvalue-minimisations  :     0
 total energy-change (2. order) :-0.4686581E-07  (-0.2171743E-07)
 number of electron      24.0000001 magnetization 
 augmentation part        2.9559611 magnetization 

 Free energy of the ion-electron system (eV)
  ---------------------------------------------------
  alpha Z        PSCENC =         0.03925812
  Ewald energy   TEWEN  =      1513.97665736
  -Hartree energ DENC   =     -2518.56405350
  -exchange      EXHF   =       292.27986196
  -V(xc)+E(xc)   XCENC  =         0.00000000
  PAW double counting   =      8881.76884783    -8881.33701838
  entropy T*S    EENTRO =        -0.00000000
  eigenvalues    EBANDS =      -511.97945584
  atomic energy  EATOM  =      1134.83746689
  ---------------------------------------------------
  free energy    TOTEN  =       -88.97843554 eV

  energy without entropy =      -88.97843554  energy(sigma->0) =      -88.97843554
  exchange ACFDT corr.  =         0.00000000  see jH, gK, PRB 81, 115126


--------------------------------------------------------------------------------------------------------


  average scaling for gradient   1.0363


 average (electrostatic) potential at core
  the test charge radii are     0.8471  0.8742  0.6256
  (the norm of the test charge is              1.0000)
       1 -70.1871       2 -66.2602       3 -64.8385       4 -66.5123       5 -24.9118
       6 -21.2678       7 -21.5760       8 -21.5161
 
 
 
 E-fermi : -12.3514     XC(G=0):   0.0000     alpha+bet : -0.0114


 k-point     1 :       0.0000    0.0000    0.0000
  band No.  band energies     occupation 
      1     -40.1523      2.00000
      2     -37.2684      2.00000
      3     -28.1478      2.00000
      4     -22.3542      2.00000
      5     -19.0860      2.00000
      6     -18.5638      2.00000
      7     -17.8249      2.00000
      8     -15.8356      2.00000
      9     -15.6601      2.00000
     10     -15.3700      2.00000
     11     -13.2340      2.00000
     12     -12.4924      2.00000
     13       0.0083      0.00000
     14       0.1288      0.00000
     15       0.1299      0.00000
     16       0.1310      0.00000
     17       0.1334      0.00000
     18       0.1688      0.00000
     19       0.1973      0.00000
     20       0.3992      0.00000


--------------------------------------------------------------------------------------------------------


 soft charge-density along one line, spin component           1
         0         1         2         3         4         5         6         7         8         9
 total charge-density along one line
 
 pseudopotential strength for first ion, spin component:           1
 17.906  21.077   0.006  -0.001  -0.003   0.010  -0.002  -0.004
 21.077  24.811   0.007  -0.002  -0.003   0.012  -0.003  -0.005
  0.006   0.007  -1.401  -0.015  -0.027  -1.504  -0.020  -0.037
 -0.001  -0.002  -0.015  -1.455   0.010  -0.020  -1.576   0.013
 -0.003  -0.003  -0.027   0.010  -1.413  -0.037   0.013  -1.520
  0.010   0.012  -1.504  -0.020  -0.037  -1.484  -0.026  -0.050
 -0.002  -0.003  -0.020  -1.576   0.013  -0.026  -1.581   0.018
 -0.004  -0.005  -0.037   0.013  -1.520  -0.050   0.018  -1.505
 total augmentation occupancy for first ion, spin component:           1
 24.864 -16.968  -2.946   1.008   4.489   2.005  -0.703  -3.232
-16.968  11.947   2.546  -0.823  -3.334  -1.661   0.558   2.403
 -2.946   2.546  16.584  -1.750   2.640  -9.671   1.051  -1.903
  1.008  -0.823  -1.750   7.557   0.882   1.051  -4.109  -0.497
  4.489  -3.334   2.640   0.882  22.422  -1.895  -0.498 -13.393
  2.005  -1.661  -9.671   1.051  -1.895   5.692  -0.637   1.317
 -0.703   0.558   1.051  -4.109  -0.498  -0.637   2.246   0.289
 -3.232   2.403  -1.903  -0.497 -13.393   1.317   0.289   8.104


------------------------ aborting loop because EDIFF is reached ----------------------------------------



 DIPCOR: dipole corrections for dipol
 direction  1 min pos   378, direction  2 min pos   378, direction  3 min pos   421,
 dipolmoment           0.419519      0.025900      0.037988 electrons x Angstroem
 Tr[quadrupol]        12.854761

 energy correction for charged system         0.000000 eV
 dipol+quadrupol energy correction            0.000125 eV
 added-field ion interaction          0.000000 eV  (added to PSCEN)

 
  *************** adding dipol energy to TOTEN NOW **************** 
    FORLOC:  cpu time    0.7701: real time    0.7720
    FORHF :  cpu time    9.3931: real time    9.4191
    FORNL :  cpu time    0.3247: real time    0.3255
    OFIELD:  cpu time    0.0731: real time    0.0733

 VOLUME and BASIS-vectors are now :
 -----------------------------------------------------------------------------
  energy-cutoff  :     1000.00
  volume of cell :    42875.00
      direct lattice vectors                 reciprocal lattice vectors
    35.000000000  0.000000000  0.000000000     0.028571429  0.000000000  0.000000000
     0.000000000 35.000000000  0.000000000     0.000000000  0.028571429  0.000000000
     0.000000000  0.000000000 35.000000000     0.000000000  0.000000000  0.028571429

  length of vectors
    35.000000000 35.000000000 35.000000000     0.028571429  0.028571429  0.028571429


 FORCES acting on ions:
    Electron-Ion                     Ewald-Force                    Non-Local-Force
 -----------------------------------------------------------------------------------------------
   0.609E+02 -.451E+02 0.141E+02   -.617E+02 0.562E+02 -.165E+02   -.306E+01 -.908E+01 0.162E+01
   0.103E+03 -.121E+03 0.349E+02   -.105E+03 0.125E+03 -.354E+02   0.125E+01 -.226E+01 0.303E+00
   -.321E+03 -.605E+02 -.174E+02   0.401E+03 0.744E+02 0.220E+02   -.219E+02 -.414E+01 -.120E+01
   0.141E+03 0.243E+03 -.379E+02   -.209E+03 -.261E+03 0.355E+02   0.228E+02 0.531E+01 0.932E+00
   -.608E+02 0.903E+02 -.245E+02   0.669E+02 -.961E+02 0.262E+02   -.348E+01 0.298E+01 -.944E+00
   -.125E+02 -.743E+02 0.754E+01   0.151E+02 0.798E+02 -.781E+01   -.168E+01 -.343E+01 0.172E+00
   0.407E+02 -.408E+01 0.637E+02   -.433E+02 0.288E+01 -.690E+02   0.159E+01 0.748E+00 0.330E+01
   0.608E+02 -.189E+02 -.409E+02   -.652E+02 0.189E+02 0.450E+02   0.274E+01 -.183E-01 -.257E+01
 -----------------------------------------------------------------------------------------------
   0.117E+02 0.926E+01 -.331E+00   -.142E-13 0.142E-13 -.213E-13   -.176E+01 -.990E+01 0.161E+01
 
 
 POSITION                                       TOTAL-FORCE (eV/Angst)
 -----------------------------------------------------------------------------------
      0.41822     34.72945      4.03175        -1.341029     -0.110226     -0.077069
     34.39634      0.77338      3.71107         0.029193      0.276881     -0.098287
      1.61371     34.89340      4.10826         0.601466     -0.018011      0.059829
     34.83872     33.51804      4.23119         0.636109      0.537184     -0.057245
      0.57317     32.91693      4.42422        -0.009222     -0.577926      0.113049
     34.87463      1.74432      3.66424        -0.095117     -0.108273      0.008041
     33.94354      0.54018      2.74836         0.052627      0.015844      0.170175
     33.61149      0.76784      4.46357         0.125973     -0.015472     -0.118494
 -----------------------------------------------------------------------------------
    total drift:                                0.000443      0.000732     -0.000025


--------------------------------------------------------------------------------------------------------



  FREE ENERGIE OF THE ION-ELECTRON SYSTEM (eV)
  ---------------------------------------------------
  free  energy   TOTEN  =       -88.97831026 eV

  energy  without entropy=      -88.97831026  energy(sigma->0) =      -88.97831026
 


--------------------------------------------------------------------------------------------------------


    POTLOK:  cpu time    8.8799: real time    8.9042


--------------------------------------------------------------------------------------------------------


     LOOP+:  cpu time 1300.8336: real time 1306.2036
    4ORBIT:  cpu time    0.0000: real time    0.0000

 total amount of memory used by VASP on root node  1985462. kBytes
========================================================================

   base      :      30000. kBytes
   nonl-proj :      61570. kBytes
   fftplans  :     693297. kBytes
   grid      :    1154248. kBytes
   one-center:          1. kBytes
   HF        :          4. kBytes
   nonlr-proj:        166. kBytes
   wavefun   :      46176. kBytes
 
  
  
 General timing and accounting informations for this job:
 ========================================================
  
                  Total CPU time used (sec):     1666.775
                            User time (sec):     1500.674
                          System time (sec):      166.101
                         Elapsed time (sec):     1674.491
  
                   Maximum memory used (kb):     2675932.
                   Average memory used (kb):           0.
  
                          Minor page faults:       411046
                          Major page faults:            0
                 Voluntary context switches:       166789
 
 PROFILE, used timers:      34
 =============================
 
 index                 routine                    time                            calls level
----------------------------------------------------------------------------------------------
    1    total_time                         1674.493012                                1   1
    2      w1_copy                               0.199840                            379   2
    3      fftwav_mpi                           38.880379                            374   2
    4      fftext_mpi                            0.340023                              5   2
    5      overl                                 0.000210                            199   2
    6      orth1                                 0.199190                            111   2
    7      lincom                                0.398277                            133   2
    8      fock_acc                            255.890809                             66   2
    9        w1_copy                               0.239379                          308   3
   10        fftwav_mpi                           15.772137                          308   3
   11        fock_charge_mu                       14.013649                          198   3
   12          racc0mu_hf                            0.219819                        198   4
   13        rpromu_hf                             0.257144                          198   3
   14        overl1                                0.000065                          110   3
   15        fftext_mpi                            3.754082                          110   3
   16      hamilt_local                         10.760750                            110   2
   17        vhamil                                2.698601                          110   3
   18        kinhamil                              8.061873                          110   3
   19          fftext_mpi                            7.987292                        110   4
   20      eccp                                  6.268999                            330   2
   21      w1_dscal                              1.380109                            110   2
   22      pdssyex_zheevx                        0.294591                             44   2
   23      eddiag                              270.430330                             22   2
   24        fock_acc                            257.086606                           66   3
   25          w1_copy                               0.187664                        308   4
   26          fftwav_mpi                           15.468463                        308   4
   27          fock_charge_mu                       14.004168                        198   4
   28            racc0mu_hf                            0.214513                      198   5
   29          rpromu_hf                             0.268872                        198   4
   30          overl1                                0.000055                        110   4
   31          fftext_mpi                            3.720874                        110   4
   32        fftwav_mpi                           11.290843                          110   3
   33        eccp                                  1.714357                          110   3
   34      rpro1_hf                              0.111531                            240   2
 
 Flat profile
 ============
 
             routine name                   CPU           calls
 ---------------------------------------------------------------
 total_time                           1089.337975           1
 fock_acc                              445.290861         132
 fftwav_mpi                             81.411822        1100
 fock_charge_mu                         27.583485         396
 fftext_mpi                             15.802272         335
 eccp                                    7.983357         440
 vhamil                                  2.698601         110
 w1_dscal                                1.380109         110
 w1_copy                                 0.626883         995
 rpromu_hf                               0.526016         396
 racc0mu_hf                              0.434333         396
 lincom                                  0.398277         133
 eddiag                                  0.338524          22
 pdssyex_zheevx                          0.294591          44
 orth1                                   0.199190         111
 rpro1_hf                                0.111531         240
 kinhamil                                0.074581         110
 hamilt_local                            0.000276         110
 overl                                   0.000210         199
 overl1                                  0.000120         220
 ---------------------------------------------------------------
  summed up times    1674.49301195145     
 
Profiling took   0.006477  0.004122  0.003272  0.003252 seconds
Profiling took   0.002780 seconds
