 vasp.6.1.2 22Jul20 (build Jan  6 2021 09:55:43) gamma-only                      
 executed on             LinuxPGI date 2021.03.02  08:52:57
 running on   32 total cores
 distrk:  each k-point on   32 cores,    1 groups
 distr:  one band on NCORE=   8 cores,    4 groups


--------------------------------------------------------------------------------------------------------


 INCAR:
 POTCAR:    PAW_PBE H_s 15May2010                 
 POTCAR:    PAW_PBE C_s 06Sep2000                 
 POTCAR:    PAW_PBE O_s 07Sep2000                 
 POTCAR:    PAW_PBE H_s 15May2010                 
   VRHFIN =H: ultrasoft test                                                                        
   LEXCH  = PE                                                                                      
   EATOM  =    12.4884 eV,    0.9179 Ry                                                             
                                                                                                    
   TITEL  = PAW_PBE H_s 15May2010                                                                   
   LULTRA =        F    use ultrasoft PP ?                                                          
   IUNSCR =        0    unscreen: 0-lin 1-nonlin 2-no                                               
   RPACOR =    0.000    partial core radius                                                         
   POMASS =    1.000; ZVAL   =    1.000    mass and valenz                                          
   RCORE  =    1.300    outmost cutoff radius                                                       
   RWIGS  =    0.700; RWIGS  =    0.370    wigner-seitz radius (au A)                               
   ENMAX  =  200.000; ENMIN  =  150.000 eV                                                          
   RCLOC  =    0.701    cutoff for local pot                                                        
   LCOR   =        T    correct aug charges                                                         
   LPAW   =        T    paw PP                                                                      
   EAUG   =  300.000                                                                                
   RMAX   =    1.330    core radius for proj-oper                                                   
   RAUG   =    1.200    factor for augmentation sphere                                              
   RDEP   =    1.337    radius for radial grids                                                     
   RDEPT  =    1.114    core radius for aug-charge                                                  
                                                                                                    
   Atomic configuration                                                                             
    2 entries                                                                                       
     n  l   j            E        occ.                                                              
     1  0  0.50        -6.4927   1.0000                                                             
     2  1  0.50        -3.4015   0.0000                                                             
   Description                                                                                      
     l       E           TYP  RCUT    TYP  RCUT                                                     
     0     -6.4927494     23  1.300                                                                 
     0      6.8029130     23  1.300                                                                 
     1     -4.0817478     23  1.300                                                                 
  local pseudopotential read in
  atomic valenz-charges read in
  non local Contribution for L=            0  read in
    real space projection operators read in
  non local Contribution for L=            0  read in
    real space projection operators read in
  non local Contribution for L=            1  read in
    real space projection operators read in
    PAW grid and wavefunctions read in
 
   number of l-projection  operators is LMAX  =            3
   number of lm-projection operators is LMMAX =            5
 
 POTCAR:    PAW_PBE C_s 06Sep2000                 
   VRHFIN =C: s2p2                                                                                  
   LEXCH  = PE                                                                                      
   EATOM  =   147.1560 eV,   10.8157 Ry                                                             
                                                                                                    
   TITEL  = PAW_PBE C_s 06Sep2000                                                                   
   LULTRA =        F    use ultrasoft PP ?                                                          
   IUNSCR =        0    unscreen: 0-lin 1-nonlin 2-no                                               
   RPACOR =    0.000    partial core radius                                                         
   POMASS =   12.011; ZVAL   =    4.000    mass and valenz                                          
   RCORE  =    1.850    outmost cutoff radius                                                       
   RWIGS  =    1.890; RWIGS  =    1.000    wigner-seitz radius (au A)                               
   ENMAX  =  273.911; ENMIN  =  205.433 eV                                                          
   RCLOC  =    0.804    cutoff for local pot                                                        
   LCOR   =        T    correct aug charges                                                         
   LPAW   =        T    paw PP                                                                      
   EAUG   =  439.243                                                                                
   DEXC   =    0.000                                                                                
   RMAX   =    1.897    core radius for proj-oper                                                   
   RAUG   =    1.300    factor for augmentation sphere                                              
   RDEP   =    1.940    radius for radial grids                                                     
   RDEPT  =    1.573    core radius for aug-charge                                                  
                                                                                                    
   Atomic configuration                                                                             
    4 entries                                                                                       
     n  l   j            E        occ.                                                              
     1  0  0.50      -273.3789   2.0000                                                             
     2  0  0.50       -13.7508   2.0000                                                             
     2  1  0.50        -5.2854   2.0000                                                             
     3  2  1.50        -1.3606   0.0000                                                             
   Description                                                                                      
     l       E           TYP  RCUT    TYP  RCUT                                                     
     0    -13.7508457     23  1.500                                                                 
     0    -11.0934578     23  1.500                                                                 
     1     -5.2854381     23  1.850                                                                 
     1     -1.3099858     23  1.850                                                                 
  local pseudopotential read in
  atomic valenz-charges read in
  non local Contribution for L=            0  read in
    real space projection operators read in
  non local Contribution for L=            0  read in
    real space projection operators read in
  non local Contribution for L=            1  read in
    real space projection operators read in
  non local Contribution for L=            1  read in
    real space projection operators read in
    PAW grid and wavefunctions read in
 
   number of l-projection  operators is LMAX  =            4
   number of lm-projection operators is LMMAX =            8
 
 POTCAR:    PAW_PBE O_s 07Sep2000                 
   VRHFIN =O: s2p4                                                                                  
   LEXCH  = PE                                                                                      
   EATOM  =   432.3788 eV,   31.7789 Ry                                                             
                                                                                                    
   TITEL  = PAW_PBE O_s 07Sep2000                                                                   
   LULTRA =        F    use ultrasoft PP ?                                                          
   IUNSCR =        0    unscreen: 0-lin 1-nonlin 2-no                                               
   RPACOR =    0.000    partial core radius                                                         
   POMASS =   16.000; ZVAL   =    6.000    mass and valenz                                          
   RCORE  =    1.850    outmost cutoff radius                                                       
   RWIGS  =    1.700; RWIGS  =    0.900    wigner-seitz radius (au A)                               
   ENMAX  =  282.853; ENMIN  =  212.140 eV                                                          
   RCLOC  =    0.804    cutoff for local pot                                                        
   LCOR   =        T    correct aug charges                                                         
   LPAW   =        T    paw PP                                                                      
   EAUG   =  412.352                                                                                
   RMAX   =    1.897    core radius for proj-oper                                                   
   RAUG   =    1.300    factor for augmentation sphere                                              
   RDEP   =    1.878    radius for radial grids                                                     
   RDEPT  =    1.572    core radius for aug-charge                                                  
                                                                                                    
   Atomic configuration                                                                             
    4 entries                                                                                       
     n  l   j            E        occ.                                                              
     1  0  0.50      -514.6923   2.0000                                                             
     2  0  0.50       -23.9615   2.0000                                                             
     2  1  0.50        -9.0305   4.0000                                                             
     3  2  1.50        -1.3606   0.0000                                                             
   Description                                                                                      
     l       E           TYP  RCUT    TYP  RCUT                                                     
     0    -23.9615315     23  1.500                                                                 
     0    -25.3221141     23  1.500                                                                 
     1     -9.0304908     23  1.850                                                                 
     1     -7.3935399     23  1.850                                                                 
  local pseudopotential read in
  atomic valenz-charges read in
  non local Contribution for L=            0  read in
    real space projection operators read in
  non local Contribution for L=            0  read in
    real space projection operators read in
  non local Contribution for L=            1  read in
    real space projection operators read in
  non local Contribution for L=            1  read in
    real space projection operators read in
    PAW grid and wavefunctions read in
 
   number of l-projection  operators is LMAX  =            4
   number of lm-projection operators is LMMAX =            8
 
  PAW_PBE H_s 15May2010                 :
 energy of atom  1       EATOM=  -12.4884
 kinetic energy error for atom=    0.0000 (will be added to EATOM!!)
  PAW_PBE C_s 06Sep2000                 :
 energy of atom  2       EATOM= -147.1560
 kinetic energy error for atom=    0.0002 (will be added to EATOM!!)
  PAW_PBE O_s 07Sep2000                 :
 energy of atom  3       EATOM= -432.3788
 kinetic energy error for atom=    0.0004 (will be added to EATOM!!)
 
 
 POSCAR:  H  C  O
  positions in cartesian coordinates
  No initial velocities read in
 exchange correlation table for  LEXCH =        8
   RHO(1)=    0.500       N(1)  =     2000
   RHO(2)=  100.500       N(2)  =     4000
 


--------------------------------------------------------------------------------------------------------


 ion  position               nearest neighbor table
   1  0.001  0.142  0.973-   6 0.96
   2  0.000  0.107  0.000-   6 0.96
   3  0.000  0.003  0.000-   4 1.17   5 1.17
   4  0.000  0.036  0.000-   3 1.17
   5  0.000  0.969  0.000-   3 1.17
   6  0.000  0.135  0.000-   2 0.96   1 0.96
 
  LATTYP: Found a simple cubic cell.
 ALAT       =    35.0000000000
  
  Lattice vectors:
  
 A1 = (  35.0000000000,   0.0000000000,   0.0000000000)
 A2 = (   0.0000000000,  35.0000000000,   0.0000000000)
 A3 = (   0.0000000000,   0.0000000000,  35.0000000000)


Analysis of symmetry for initial positions (statically):
=====================================================================
 Subroutine PRICEL returns:
 Original cell was already a primitive cell.
 

 Routine SETGRP: Setting up the symmetry group for a 
 simple cubic supercell.


 Subroutine GETGRP returns: Found  1 space group operations
 (whereof  1 operations were pure point group operations)
 out of a pool of 48 trial point group operations.


The static configuration has the point symmetry C_1 .


Analysis of symmetry for dynamics (positions and initial velocities):
=====================================================================
 Subroutine PRICEL returns:
 Original cell was already a primitive cell.
 

 Routine SETGRP: Setting up the symmetry group for a 
 simple cubic supercell.


 Subroutine GETGRP returns: Found  1 space group operations
 (whereof  1 operations were pure point group operations)
 out of a pool of 48 trial point group operations.


The dynamic configuration has the point symmetry C_1 .


 Subroutine INISYM returns: Found  1 space group operations
 (whereof  1 operations are pure point group operations),
 and found     1 'primitive' translations


----------------------------------------------------------------------------------------

                                     Primitive cell                                     

  volume of cell :   42875.0000

  direct lattice vectors                    reciprocal lattice vectors
    35.000000000  0.000000000  0.000000000     0.028571429  0.000000000  0.000000000
     0.000000000 35.000000000  0.000000000     0.000000000  0.028571429  0.000000000
     0.000000000  0.000000000 35.000000000     0.000000000  0.000000000  0.028571429

  length of vectors
    35.000000000 35.000000000 35.000000000     0.028571429  0.028571429  0.028571429

  position of ions in fractional coordinates (direct lattice)
     0.001011704  0.141547545  0.973379868
     0.000000000  0.107385029  0.000000000
     0.000000000  0.002521600  0.000000000
     0.000000000  0.035956457  0.000000000
     0.000000000  0.969086743  0.000000000
     0.000000000  0.134852743  0.000000000

  ion indices of the primitive-cell ions
   primitive index   ion index
                 1           1
                 2           2
                 3           3
                 4           4
                 5           5
                 6           6

----------------------------------------------------------------------------------------

 
 
 KPOINTS: automatic mesh                          

Automatic generation of k-mesh.
Space group operators:
 irot       det(A)        alpha          n_x          n_y          n_z        tau_x        tau_y        tau_z
    1     1.000000     0.000000     1.000000     0.000000     0.000000     0.000000     0.000000     0.000000
 
 Subroutine IBZKPT returns following result:
 ===========================================
 
 Found      1 irreducible k-points:
 
 Following reciprocal coordinates:
            Coordinates               Weight
  0.000000  0.000000  0.000000      1.000000
 
 Following cartesian coordinates:
            Coordinates               Weight
  0.000000  0.000000  0.000000      1.000000
 


--------------------------------------------------------------------------------------------------------




 Dimension of arrays:
   k-points           NKPTS =      1   k-points in BZ     NKDIM =      1   number of bands    NBANDS=     16
   number of dos      NEDOS =    301   number of ions     NIONS =      6
   non local maximal  LDIM  =      4   non local SUM 2l+1 LMDIM =      8
   total plane-waves  NPLWV = ******
   max r-space proj   IRMAX =      1   max aug-charges    IRDMAX=  29269
   dimension x,y,z NGX =   378 NGY =  378 NGZ =  378
   dimension x,y,z NGXF=   756 NGYF=  756 NGZF=  756
   support grid    NGXF=   756 NGYF=  756 NGZF=  756
   ions per type =               2   1   3
   NGX,Y,Z   is equivalent  to a cutoff of  17.95, 17.95, 17.95 a.u.
   NGXF,Y,Z  is equivalent  to a cutoff of  35.91, 35.91, 35.91 a.u.

 SYSTEM =  C                                       
 POSCAR =   H  C  O                                

 Startparameter for this run:
   NWRITE =      2    write-flag & timer
   PREC   = acc       normal or accurate (medium, high low for compatibility)
   ISTART =      0    job   : 0-new  1-cont  2-samecut
   ICHARG =      2    charge: 1-file 2-atom 10-const
   ISPIN  =      1    spin polarized calculation?
   LNONCOLLINEAR =      F non collinear calculations
   LSORBIT =      F    spin-orbit coupling
   INIWAV =      1    electr: 0-lowe 1-rand  2-diag
   LASPH  =      T    aspherical Exc in radial PAW
   METAGGA=      F    non-selfconsistent MetaGGA calc.

 Electronic Relaxation 1
   ENCUT  = 1000.0 eV  73.50 Ry    8.57 a.u.  90.25 90.25 90.25*2*pi/ulx,y,z
   ENINI  = 1000.0     initial cutoff
   ENAUG  =  439.2 eV  augmentation charge cutoff
   NELM   =     60;   NELMIN=  2; NELMDL= -5     # of ELM steps 
   EDIFF  = 0.1E-06   stopping-criterion for ELM
   LREAL  =      F    real-space projection
   NLSPLINE    = F    spline interpolate recip. space projectors
   LCOMPAT=      F    compatible to vasp.4.4
   GGA_COMPAT  = T    GGA compatible to vasp.4.4-vasp.4.6
   LMAXPAW     = -100 max onsite density
   LMAXMIX     =    2 max onsite mixed and CHGCAR
   VOSKOWN=      0    Vosko Wilk Nusair interpolation
   ROPT   =    0.00000   0.00000   0.00000
 Ionic relaxation
   EDIFFG = 0.1E-05   stopping-criterion for IOM
   NSW    =      0    number of steps for IOM
   NBLOCK =      1;   KBLOCK =      1    inner block; outer block 
   IBRION =     -1    ionic relax: 0-MD 1-quasi-New 2-CG
   NFREE  =      0    steps in history (QN), initial steepest desc. (CG)
   ISIF   =      2    stress and relaxation
   IWAVPR =     10    prediction:  0-non 1-charg 2-wave 3-comb
   ISYM   =      2    0-nonsym 1-usesym 2-fastsym
   LCORR  =      T    Harris-Foulkes like correction to forces

   POTIM  = 0.5000    time-step for ionic-motion
   TEIN   =    0.0    initial temperature
   TEBEG  =    0.0;   TEEND  =   0.0 temperature during run
   SMASS  =  -3.00    Nose mass-parameter (am)
   estimated Nose-frequenzy (Omega)   =  0.10E-29 period in steps = 0.13E+47 mass=  -0.280E-25a.u.
   SCALEE = 1.0000    scale energy and forces
   NPACO  =    256;   APACO  = 16.0  distance and # of slots for P.C.
   PSTRESS=    0.0 pullay stress

  Mass of Ions in am
   POMASS =   1.00 12.01 16.00
  Ionic Valenz
   ZVAL   =   1.00  4.00  6.00
  Atomic Wigner-Seitz radii
   RWIGS  =  -1.00 -1.00 -1.00
  virtual crystal weights 
   VCA    =   1.00  1.00  1.00
   NELECT =      24.0000    total number of electrons
   NUPDOWN=      -1.0000    fix difference up-down

 DOS related values:
   EMIN   =  10.00;   EMAX   =-10.00  energy-range for DOS
   EFERMI =   0.00
   ISMEAR =     0;   SIGMA  =   0.01  broadening in eV -4-tet -1-fermi 0-gaus

 Electronic relaxation 2 (details)
   IALGO  =     38    algorithm
   LDIAG  =      T    sub-space diagonalisation (order eigenvalues)
   LSUBROT=      F    optimize rotation matrix (better conditioning)
   TURBO    =      0    0=normal 1=particle mesh
   IRESTART =      0    0=no restart 2=restart with 2 vectors
   NREBOOT  =      0    no. of reboots
   NMIN     =      0    reboot dimension
   EREF     =   0.00    reference energy to select bands
   IMIX   =      4    mixing-type and parameters
     AMIX     =   0.40;   BMIX     =  1.00
     AMIX_MAG =   1.60;   BMIX_MAG =  1.00
     AMIN     =   0.10
     WC   =   100.;   INIMIX=   1;  MIXPRE=   1;  MAXMIX= -45

 Intra band minimization:
   WEIMIN = 0.0000     energy-eigenvalue tresh-hold
   EBREAK =  0.16E-08  absolut break condition
   DEPER  =   0.30     relativ break condition  

   TIME   =   0.40     timestep for ELM

  volume/ion in A,a.u.               =    7145.83     48222.46
  Fermi-wavevector in a.u.,A,eV,Ry     =   0.134920  0.254962  0.247673  0.018203
  Thomas-Fermi vector in A             =   0.783236
 
 Write flags
   LWAVE        =      T    write WAVECAR
   LDOWNSAMPLE  =      F    k-point downsampling of WAVECAR
   LCHARG       =      T    write CHGCAR
   LVTOT        =      F    write LOCPOT, total local potential
   LVHAR        =      F    write LOCPOT, Hartree potential only
   LELF         =      F    write electronic localiz. function (ELF)
   LORBIT       =      0    0 simple, 1 ext, 2 COOP (PROOUT), +10 PAW based schemes


 Dipole corrections
   LMONO  =      F    monopole corrections only (constant potential shift)
   LDIPOL =      F    correct potential (dipole corrections)
   IDIPOL =      4    1-x, 2-y, 3-z, 4-all directions 
   EPSILON=  1.0000000 bulk dielectric constant

 Exchange correlation treatment:
   GGA     =    --    GGA type
   LEXCH   =     8    internal setting for exchange type
   VOSKOWN=      0    Vosko Wilk Nusair interpolation
   LHFCALC =     F    Hartree Fock is set to
   LHFONE  =     F    Hartree Fock one center treatment
   AEXX    =    0.0000 exact exchange contribution

 Linear response parameters
   LEPSILON=     F    determine dielectric tensor
   LRPA    =     F    only Hartree local field effects (RPA)
   LNABLA  =     F    use nabla operator in PAW spheres
   LVEL    =     F    velocity operator in full k-point grid
   LINTERFAST=   F  fast interpolation
   KINTER  =     0    interpolate to denser k-point grid
   CSHIFT  =0.1000    complex shift for real part using Kramers Kronig
   OMEGAMAX=  -1.0    maximum frequency
   DEG_THRESHOLD= 0.2000000E-02 threshold for treating states as degnerate
   RTIME   =   -0.100 relaxation time in fs
  (WPLASMAI=    0.000 imaginary part of plasma frequency in eV, 0.658/RTIME)
   DFIELD  = 0.0000000 0.0000000 0.0000000 field for delta impulse in time
 
 Orbital magnetization related:
   ORBITALMAG=     F  switch on orbital magnetization
   LCHIMAG   =     F  perturbation theory with respect to B field
   DQ        =  0.001000  dq finite difference perturbation B field
   LLRAUG    =     F  two centre corrections for induced B field



--------------------------------------------------------------------------------------------------------


 Static calculation
 charge density and potential will be updated during run
 non-spin polarized calculation
 Variant of blocked Davidson
 Davidson routine will perform the subspace rotation
 perform sub-space diagonalisation
    after iterative eigenvector-optimisation
 modified Broyden-mixing scheme, WC =      100.0
 initial mixing is a Kerker type mixing with AMIX =  0.4000 and BMIX =      1.0000
 Hartree-type preconditioning will be used
 using additional bands             4
 reciprocal scheme for non local part
 calculate Harris-corrections to forces 
   (improved forces if not selfconsistent)
 use gradient corrections 
 use of overlap-Matrix (Vanderbilt PP)
 Gauss-broadening in eV      SIGMA  =   0.01


--------------------------------------------------------------------------------------------------------


  energy-cutoff  :     1000.00
  volume of cell :    42875.00
      direct lattice vectors                 reciprocal lattice vectors
    35.000000000  0.000000000  0.000000000     0.028571429  0.000000000  0.000000000
     0.000000000 35.000000000  0.000000000     0.000000000  0.028571429  0.000000000
     0.000000000  0.000000000 35.000000000     0.000000000  0.000000000  0.028571429

  length of vectors
    35.000000000 35.000000000 35.000000000     0.028571429  0.028571429  0.028571429


 
 k-points in units of 2pi/SCALE and weight: automatic mesh                          
   0.00000000  0.00000000  0.00000000       1.000
 
 k-points in reciprocal lattice and weights: automatic mesh                          
   0.00000000  0.00000000  0.00000000       1.000
 
 position of ions in fractional coordinates (direct lattice) 
   0.00101170  0.14154755  0.97337987
   0.00000000  0.10738503  0.00000000
   0.00000000  0.00252160  0.00000000
   0.00000000  0.03595646  0.00000000
   0.00000000  0.96908674  0.00000000
   0.00000000  0.13485274  0.00000000
 
 position of ions in cartesian coordinates  (Angst):
   0.03540965  4.95416408 34.06829539
   0.00000000  3.75847600  0.00000000
   0.00000000  0.08825600  0.00000000
   0.00000000  1.25847600  0.00000000
   0.00000000 33.91803600  0.00000000
   0.00000000  4.71984600  0.00000000
 


--------------------------------------------------------------------------------------------------------


 use parallel FFT for orbitals z direction half grid
 k-point   1 :   0.0000 0.0000 0.0000  plane waves: 1539209

 maximum and minimum number of plane-waves per node :    192406   192397

 maximum number of plane-waves:   1539209
 maximum index in each direction: 
   IXMAX=   90   IYMAX=   90   IZMAX=   90
   IXMIN=  -90   IYMIN=  -90   IZMIN=    0


 parallel 3D FFT for wavefunctions:
    minimum data exchange during FFTs selected (reduces bandwidth)
 parallel 3D FFT for charge:
    minimum data exchange during FFTs selected (reduces bandwidth)


 total amount of memory used by VASP MPI-rank0  1853416. kBytes
=======================================================================

   base      :      30000. kBytes
   nonl-proj :      55413. kBytes
   fftplans  :     601440. kBytes
   grid      :    1154248. kBytes
   one-center:          1. kBytes
   wavefun   :      12314. kBytes
 
     INWAV:  cpu time    0.0000: real time    0.0000
 Broyden mixing: mesh for mixing (old mesh)
   NGX =181   NGY =181   NGZ =181
  (NGX  =756   NGY  =756   NGZ  =756)
  gives a total of ****** points

 initial charge density was supplied:
 charge density of overlapping atoms calculated
 number of electron      24.0000000 magnetization 
 keeping initial charge density in first step


--------------------------------------------------------------------------------------------------------


 Maximum index for augmentation-charges          1120 (set IRDMAX)


--------------------------------------------------------------------------------------------------------


 First call to EWALD:  gamma=   0.051
 Maximum number of real-space cells 3x 3x 3
 Maximum number of reciprocal cells 3x 3x 3

    FEWALD:  cpu time    0.0007: real time    0.0007


--------------------------------------- Iteration      1(   1)  ---------------------------------------


    POTLOK:  cpu time   11.7205: real time   11.7369
    SETDIJ:  cpu time    0.0506: real time    0.0519
     EDDAV:  cpu time    7.2042: real time    7.2502
       DOS:  cpu time    0.0030: real time    0.0030
    --------------------------------------------
      LOOP:  cpu time   18.9783: real time   19.0420

 eigenvalue-minimisations  :    48
 total energy-change (2. order) : 0.2367182E+03  (-0.3982263E+03)
 number of electron      24.0000000 magnetization 
 augmentation part       24.0000000 magnetization 

 Free energy of the ion-electron system (eV)
  ---------------------------------------------------
  alpha Z        PSCENC =         0.03994862
  Ewald energy   TEWEN  =      1097.69009327
  -Hartree energ DENC   =     -2253.17829617
  -exchange      EXHF   =         0.00000000
  -V(xc)+E(xc)   XCENC  =       100.15280659
  PAW double counting   =      1147.08281512    -1160.42820606
  entropy T*S    EENTRO =        -0.00000000
  eigenvalues    EBANDS =      -163.90863862
  atomic energy  EATOM  =      1469.26766065
  Solvation  Ediel_sol  =         0.00000000
  ---------------------------------------------------
  free energy    TOTEN  =       236.71818338 eV

  energy without entropy =      236.71818338  energy(sigma->0) =      236.71818338


--------------------------------------------------------------------------------------------------------




--------------------------------------- Iteration      1(   2)  ---------------------------------------


     EDDAV:  cpu time    8.9650: real time    8.9794
       DOS:  cpu time    0.0022: real time    0.0022
    --------------------------------------------
      LOOP:  cpu time    8.9672: real time    8.9816

 eigenvalue-minimisations  :    64
 total energy-change (2. order) :-0.1663924E+03  (-0.1663322E+03)
 number of electron      24.0000000 magnetization 
 augmentation part       24.0000000 magnetization 

 Free energy of the ion-electron system (eV)
  ---------------------------------------------------
  alpha Z        PSCENC =         0.03994862
  Ewald energy   TEWEN  =      1097.69009327
  -Hartree energ DENC   =     -2253.17829617
  -exchange      EXHF   =         0.00000000
  -V(xc)+E(xc)   XCENC  =       100.15280659
  PAW double counting   =      1147.08281512    -1160.42820606
  entropy T*S    EENTRO =        -0.00000000
  eigenvalues    EBANDS =      -330.30107699
  atomic energy  EATOM  =      1469.26766065
  Solvation  Ediel_sol  =         0.00000000
  ---------------------------------------------------
  free energy    TOTEN  =        70.32574501 eV

  energy without entropy =       70.32574501  energy(sigma->0) =       70.32574501


--------------------------------------------------------------------------------------------------------




--------------------------------------- Iteration      1(   3)  ---------------------------------------


     EDDAV:  cpu time    6.2783: real time    6.2883
       DOS:  cpu time    0.0016: real time    0.0016
    --------------------------------------------
      LOOP:  cpu time    6.2799: real time    6.2899

 eigenvalue-minimisations  :    40
 total energy-change (2. order) :-0.9152404E+02  (-0.9149727E+02)
 number of electron      24.0000000 magnetization 
 augmentation part       24.0000000 magnetization 

 Free energy of the ion-electron system (eV)
  ---------------------------------------------------
  alpha Z        PSCENC =         0.03994862
  Ewald energy   TEWEN  =      1097.69009327
  -Hartree energ DENC   =     -2253.17829617
  -exchange      EXHF   =         0.00000000
  -V(xc)+E(xc)   XCENC  =       100.15280659
  PAW double counting   =      1147.08281512    -1160.42820606
  entropy T*S    EENTRO =        -0.00000000
  eigenvalues    EBANDS =      -421.82511559
  atomic energy  EATOM  =      1469.26766065
  Solvation  Ediel_sol  =         0.00000000
  ---------------------------------------------------
  free energy    TOTEN  =       -21.19829359 eV

  energy without entropy =      -21.19829359  energy(sigma->0) =      -21.19829359


--------------------------------------------------------------------------------------------------------




--------------------------------------- Iteration      1(   4)  ---------------------------------------


     EDDAV:  cpu time    5.4111: real time    5.4199
       DOS:  cpu time    0.0019: real time    0.0019
    --------------------------------------------
      LOOP:  cpu time    5.4130: real time    5.4218

 eigenvalue-minimisations  :    32
 total energy-change (2. order) :-0.1848273E+02  (-0.1848219E+02)
 number of electron      24.0000000 magnetization 
 augmentation part       24.0000000 magnetization 

 Free energy of the ion-electron system (eV)
  ---------------------------------------------------
  alpha Z        PSCENC =         0.03994862
  Ewald energy   TEWEN  =      1097.69009327
  -Hartree energ DENC   =     -2253.17829617
  -exchange      EXHF   =         0.00000000
  -V(xc)+E(xc)   XCENC  =       100.15280659
  PAW double counting   =      1147.08281512    -1160.42820606
  entropy T*S    EENTRO =        -0.00000000
  eigenvalues    EBANDS =      -440.30784093
  atomic energy  EATOM  =      1469.26766065
  Solvation  Ediel_sol  =         0.00000000
  ---------------------------------------------------
  free energy    TOTEN  =       -39.68101893 eV

  energy without entropy =      -39.68101893  energy(sigma->0) =      -39.68101893


--------------------------------------------------------------------------------------------------------




--------------------------------------- Iteration      1(   5)  ---------------------------------------


     EDDAV:  cpu time    7.1887: real time    7.2006
       DOS:  cpu time    0.0026: real time    0.0026
    CHARGE:  cpu time    1.7028: real time    1.7051
    MIXING:  cpu time    0.2051: real time    0.2055
    --------------------------------------------
      LOOP:  cpu time    9.0993: real time    9.1138

 eigenvalue-minimisations  :    48
 total energy-change (2. order) :-0.3618499E+00  (-0.3618254E+00)
 number of electron      23.9999997 magnetization 
 augmentation part        4.6476430 magnetization 

 Broyden mixing:
  rms(total) = 0.49331E+01    rms(broyden)= 0.49331E+01
  rms(prec ) = 0.49411E+01
  weight for this iteration     100.00

 Free energy of the ion-electron system (eV)
  ---------------------------------------------------
  alpha Z        PSCENC =         0.03994862
  Ewald energy   TEWEN  =      1097.69009327
  -Hartree energ DENC   =     -2253.17829617
  -exchange      EXHF   =         0.00000000
  -V(xc)+E(xc)   XCENC  =       100.15280659
  PAW double counting   =      1147.08281512    -1160.42820606
  entropy T*S    EENTRO =        -0.00000000
  eigenvalues    EBANDS =      -440.66969085
  atomic energy  EATOM  =      1469.26766065
  Solvation  Ediel_sol  =         0.00000000
  ---------------------------------------------------
  free energy    TOTEN  =       -40.04286885 eV

  energy without entropy =      -40.04286885  energy(sigma->0) =      -40.04286885


--------------------------------------------------------------------------------------------------------




--------------------------------------- Iteration      1(   6)  ---------------------------------------


    POTLOK:  cpu time   11.5452: real time   11.5611
    SETDIJ:  cpu time    0.0546: real time    0.0547
     EDDAV:  cpu time    5.4129: real time    5.4216
       DOS:  cpu time    0.0018: real time    0.0018
    CHARGE:  cpu time    1.6284: real time    1.6309
    MIXING:  cpu time    0.2212: real time    0.2314
    --------------------------------------------
      LOOP:  cpu time   18.8641: real time   18.9013

 eigenvalue-minimisations  :    32
 total energy-change (2. order) : 0.3656709E+01  (-0.1997549E+01)
 number of electron      23.9999998 magnetization 
 augmentation part        4.0546003 magnetization 

 Broyden mixing:
  rms(total) = 0.52297E+01    rms(broyden)= 0.52297E+01
  rms(prec ) = 0.52302E+01
  weight for this iteration     100.00

 eigenvalues of (default mixing * dielectric matrix)
  average eigenvalue GAMMA=   0.1680
  0.1680

 Free energy of the ion-electron system (eV)
  ---------------------------------------------------
  alpha Z        PSCENC =         0.03994862
  Ewald energy   TEWEN  =      1097.69009327
  -Hartree energ DENC   =     -2301.22241041
  -exchange      EXHF   =         0.00000000
  -V(xc)+E(xc)   XCENC  =       103.01241163
  PAW double counting   =      2250.72255948    -2266.63329064
  entropy T*S    EENTRO =        -0.00000000
  eigenvalues    EBANDS =      -389.26313222
  atomic energy  EATOM  =      1469.26766065
  Solvation  Ediel_sol  =         0.00000000
  ---------------------------------------------------
  free energy    TOTEN  =       -36.38615962 eV

  energy without entropy =      -36.38615962  energy(sigma->0) =      -36.38615962


--------------------------------------------------------------------------------------------------------




--------------------------------------- Iteration      1(   7)  ---------------------------------------


    POTLOK:  cpu time   11.5247: real time   11.5410
    SETDIJ:  cpu time    0.0549: real time    0.0549
     EDDAV:  cpu time    8.0517: real time    8.0647
       DOS:  cpu time    0.0011: real time    0.0011
    CHARGE:  cpu time    1.6339: real time    1.6364
    MIXING:  cpu time    0.2121: real time    0.2125
    --------------------------------------------
      LOOP:  cpu time   21.4785: real time   21.5106

 eigenvalue-minimisations  :    56
 total energy-change (2. order) :-0.2163620E-01  (-0.7463788E-01)
 number of electron      23.9999998 magnetization 
 augmentation part        4.0683869 magnetization 

 Broyden mixing:
  rms(total) = 0.47318E+01    rms(broyden)= 0.47318E+01
  rms(prec ) = 0.47325E+01
  weight for this iteration     100.00

 eigenvalues of (default mixing * dielectric matrix)
  average eigenvalue GAMMA=   1.1688
  1.1688  1.1688

 Free energy of the ion-electron system (eV)
  ---------------------------------------------------
  alpha Z        PSCENC =         0.03994862
  Ewald energy   TEWEN  =      1097.69009327
  -Hartree energ DENC   =     -2302.48790242
  -exchange      EXHF   =         0.00000000
  -V(xc)+E(xc)   XCENC  =       103.07453675
  PAW double counting   =      2483.07791218    -2498.92412960
  entropy T*S    EENTRO =        -0.00000000
  eigenvalues    EBANDS =      -388.14591524
  atomic energy  EATOM  =      1469.26766065
  Solvation  Ediel_sol  =         0.00000000
  ---------------------------------------------------
  free energy    TOTEN  =       -36.40779581 eV

  energy without entropy =      -36.40779581  energy(sigma->0) =      -36.40779581


--------------------------------------------------------------------------------------------------------




--------------------------------------- Iteration      1(   8)  ---------------------------------------


    POTLOK:  cpu time   11.5432: real time   11.5593
    SETDIJ:  cpu time    0.0526: real time    0.0526
     EDDAV:  cpu time    8.0448: real time    8.0579
       DOS:  cpu time    0.0021: real time    0.0021
    CHARGE:  cpu time    1.6931: real time    1.6954
    MIXING:  cpu time    0.2181: real time    0.2184
    --------------------------------------------
      LOOP:  cpu time   21.5539: real time   21.5857

 eigenvalue-minimisations  :    56
 total energy-change (2. order) :-0.1026815E+00  (-0.5071497E+00)
 number of electron      23.9999998 magnetization 
 augmentation part        4.1837149 magnetization 

 Broyden mixing:
  rms(total) = 0.14809E+01    rms(broyden)= 0.14809E+01
  rms(prec ) = 0.14847E+01
  weight for this iteration     100.00

 eigenvalues of (default mixing * dielectric matrix)
  average eigenvalue GAMMA=   1.2571
  2.2981  0.7366  0.7366

 Free energy of the ion-electron system (eV)
  ---------------------------------------------------
  alpha Z        PSCENC =         0.03994862
  Ewald energy   TEWEN  =      1097.69009327
  -Hartree energ DENC   =     -2315.84430201
  -exchange      EXHF   =         0.00000000
  -V(xc)+E(xc)   XCENC  =       103.65758309
  PAW double counting   =      4073.07809341    -4088.73861412
  entropy T*S    EENTRO =        -0.00000000
  eigenvalues    EBANDS =      -375.66094022
  atomic energy  EATOM  =      1469.26766065
  Solvation  Ediel_sol  =         0.00000000
  ---------------------------------------------------
  free energy    TOTEN  =       -36.51047731 eV

  energy without entropy =      -36.51047731  energy(sigma->0) =      -36.51047731


--------------------------------------------------------------------------------------------------------




--------------------------------------- Iteration      1(   9)  ---------------------------------------


    POTLOK:  cpu time   11.5461: real time   11.5621
    SETDIJ:  cpu time    0.0560: real time    0.0560
     EDDAV:  cpu time    8.0751: real time    8.0880
       DOS:  cpu time    0.0016: real time    0.0016
    CHARGE:  cpu time    1.6386: real time    1.6411
    MIXING:  cpu time    0.2319: real time    0.2324
    --------------------------------------------
      LOOP:  cpu time   21.5492: real time   21.5810

 eigenvalue-minimisations  :    56
 total energy-change (2. order) : 0.3572711E+00  (-0.1088021E+00)
 number of electron      23.9999998 magnetization 
 augmentation part        4.0809832 magnetization 

 Broyden mixing:
  rms(total) = 0.91515E+00    rms(broyden)= 0.91515E+00
  rms(prec ) = 0.91657E+00
  weight for this iteration     100.00

 eigenvalues of (default mixing * dielectric matrix)
  average eigenvalue GAMMA=   1.2147
  2.5583  0.7058  0.7058  0.8889

 Free energy of the ion-electron system (eV)
  ---------------------------------------------------
  alpha Z        PSCENC =         0.03994862
  Ewald energy   TEWEN  =      1097.69009327
  -Hartree energ DENC   =     -2324.37344712
  -exchange      EXHF   =         0.00000000
  -V(xc)+E(xc)   XCENC  =       104.21721105
  PAW double counting   =      5267.33087740    -5283.26424033
  entropy T*S    EENTRO =        -0.00000000
  eigenvalues    EBANDS =      -367.06130971
  atomic energy  EATOM  =      1469.26766065
  Solvation  Ediel_sol  =         0.00000000
  ---------------------------------------------------
  free energy    TOTEN  =       -36.15320618 eV

  energy without entropy =      -36.15320618  energy(sigma->0) =      -36.15320618


--------------------------------------------------------------------------------------------------------




--------------------------------------- Iteration      1(  10)  ---------------------------------------


    POTLOK:  cpu time   11.5647: real time   11.5802
    SETDIJ:  cpu time    0.0556: real time    0.0556
     EDDAV:  cpu time    8.0652: real time    8.0783
       DOS:  cpu time    0.0009: real time    0.0009
    CHARGE:  cpu time    1.7013: real time    1.7037
    MIXING:  cpu time    0.2540: real time    0.2544
    --------------------------------------------
      LOOP:  cpu time   21.6417: real time   21.6732

 eigenvalue-minimisations  :    56
 total energy-change (2. order) : 0.4271849E-01  (-0.5061756E-02)
 number of electron      23.9999998 magnetization 
 augmentation part        4.0804029 magnetization 

 Broyden mixing:
  rms(total) = 0.70194E+00    rms(broyden)= 0.70194E+00
  rms(prec ) = 0.70312E+00
  weight for this iteration     100.00

 eigenvalues of (default mixing * dielectric matrix)
  average eigenvalue GAMMA=   1.2203
  2.4270  0.9670  0.9670  0.8231  0.9173

 Free energy of the ion-electron system (eV)
  ---------------------------------------------------
  alpha Z        PSCENC =         0.03994862
  Ewald energy   TEWEN  =      1097.69009327
  -Hartree energ DENC   =     -2323.68757833
  -exchange      EXHF   =         0.00000000
  -V(xc)+E(xc)   XCENC  =       104.18271528
  PAW double counting   =      5642.23590526    -5657.98876303
  entropy T*S    EENTRO =        -0.00000000
  eigenvalues    EBANDS =      -367.85046940
  atomic energy  EATOM  =      1469.26766065
  Solvation  Ediel_sol  =         0.00000000
  ---------------------------------------------------
  free energy    TOTEN  =       -36.11048769 eV

  energy without entropy =      -36.11048769  energy(sigma->0) =      -36.11048769


--------------------------------------------------------------------------------------------------------




--------------------------------------- Iteration      1(  11)  ---------------------------------------


    POTLOK:  cpu time   11.5755: real time   11.5913
    SETDIJ:  cpu time    0.0548: real time    0.0548
     EDDAV:  cpu time    8.0710: real time    8.0839
       DOS:  cpu time    0.0011: real time    0.0011
    CHARGE:  cpu time    1.6620: real time    1.6644
    MIXING:  cpu time    0.2435: real time    0.2438
    --------------------------------------------
      LOOP:  cpu time   21.6078: real time   21.6393

 eigenvalue-minimisations  :    56
 total energy-change (2. order) : 0.4872667E-01  (-0.7105566E-02)
 number of electron      23.9999998 magnetization 
 augmentation part        4.0731722 magnetization 

 Broyden mixing:
  rms(total) = 0.38519E+00    rms(broyden)= 0.38519E+00
  rms(prec ) = 0.38586E+00
  weight for this iteration     100.00

 eigenvalues of (default mixing * dielectric matrix)
  average eigenvalue GAMMA=   1.2420
  2.4241  1.3279  1.3279  0.9114  0.7303  0.7303

 Free energy of the ion-electron system (eV)
  ---------------------------------------------------
  alpha Z        PSCENC =         0.03994862
  Ewald energy   TEWEN  =      1097.69009327
  -Hartree energ DENC   =     -2321.89223127
  -exchange      EXHF   =         0.00000000
  -V(xc)+E(xc)   XCENC  =       104.08428391
  PAW double counting   =      5783.83189185    -5799.40755223
  entropy T*S    EENTRO =        -0.00000000
  eigenvalues    EBANDS =      -369.67585582
  atomic energy  EATOM  =      1469.26766065
  Solvation  Ediel_sol  =         0.00000000
  ---------------------------------------------------
  free energy    TOTEN  =       -36.06176102 eV

  energy without entropy =      -36.06176102  energy(sigma->0) =      -36.06176102


--------------------------------------------------------------------------------------------------------




--------------------------------------- Iteration      1(  12)  ---------------------------------------


    POTLOK:  cpu time   11.5690: real time   11.5849
    SETDIJ:  cpu time    0.0519: real time    0.0519
     EDDAV:  cpu time    8.0808: real time    8.0950
       DOS:  cpu time    0.0013: real time    0.0013
    CHARGE:  cpu time    1.7380: real time    1.7402
    MIXING:  cpu time    0.2584: real time    0.2588
    --------------------------------------------
      LOOP:  cpu time   21.6993: real time   21.7321

 eigenvalue-minimisations  :    56
 total energy-change (2. order) : 0.9790605E-02  (-0.1506625E-02)
 number of electron      23.9999998 magnetization 
 augmentation part        4.0666650 magnetization 

 Broyden mixing:
  rms(total) = 0.21866E+00    rms(broyden)= 0.21866E+00
  rms(prec ) = 0.21914E+00
  weight for this iteration     100.00

 eigenvalues of (default mixing * dielectric matrix)
  average eigenvalue GAMMA=   1.2071
  2.4044  1.5023  1.5023  0.7237  0.7237  0.9018  0.6915

 Free energy of the ion-electron system (eV)
  ---------------------------------------------------
  alpha Z        PSCENC =         0.03994862
  Ewald energy   TEWEN  =      1097.69009327
  -Hartree energ DENC   =     -2321.62740624
  -exchange      EXHF   =         0.00000000
  -V(xc)+E(xc)   XCENC  =       104.06664216
  PAW double counting   =      5897.84386627    -5913.33332642
  entropy T*S    EENTRO =        -0.00000000
  eigenvalues    EBANDS =      -369.99944872
  atomic energy  EATOM  =      1469.26766065
  Solvation  Ediel_sol  =         0.00000000
  ---------------------------------------------------
  free energy    TOTEN  =       -36.05197042 eV

  energy without entropy =      -36.05197042  energy(sigma->0) =      -36.05197042


--------------------------------------------------------------------------------------------------------




--------------------------------------- Iteration      1(  13)  ---------------------------------------


    POTLOK:  cpu time   11.5497: real time   11.5658
    SETDIJ:  cpu time    0.0531: real time    0.0532
     EDDAV:  cpu time    8.0747: real time    8.0884
       DOS:  cpu time    0.0027: real time    0.0027
    CHARGE:  cpu time    1.7426: real time    1.7450
    MIXING:  cpu time    0.2605: real time    0.2609
    --------------------------------------------
      LOOP:  cpu time   21.6833: real time   21.7159

 eigenvalue-minimisations  :    56
 total energy-change (2. order) : 0.1916237E-02  (-0.3489694E-03)
 number of electron      23.9999998 magnetization 
 augmentation part        4.0629944 magnetization 

 Broyden mixing:
  rms(total) = 0.14842E+00    rms(broyden)= 0.14842E+00
  rms(prec ) = 0.14876E+00
  weight for this iteration     100.00

 eigenvalues of (default mixing * dielectric matrix)
  average eigenvalue GAMMA=   1.2358
  2.4584  1.8054  1.8054  0.7801  0.7801  0.8535  0.7017  0.7017

 Free energy of the ion-electron system (eV)
  ---------------------------------------------------
  alpha Z        PSCENC =         0.03994862
  Ewald energy   TEWEN  =      1097.69009327
  -Hartree energ DENC   =     -2321.57791637
  -exchange      EXHF   =         0.00000000
  -V(xc)+E(xc)   XCENC  =       104.06095814
  PAW double counting   =      5947.55051974    -5962.99835191
  entropy T*S    EENTRO =        -0.00000000
  eigenvalues    EBANDS =      -370.08296631
  atomic energy  EATOM  =      1469.26766065
  Solvation  Ediel_sol  =         0.00000000
  ---------------------------------------------------
  free energy    TOTEN  =       -36.05005418 eV

  energy without entropy =      -36.05005418  energy(sigma->0) =      -36.05005418


--------------------------------------------------------------------------------------------------------




--------------------------------------- Iteration      1(  14)  ---------------------------------------


    POTLOK:  cpu time   11.6122: real time   11.6282
    SETDIJ:  cpu time    0.0489: real time    0.0489
     EDDAV:  cpu time    8.0854: real time    8.0987
       DOS:  cpu time    0.0022: real time    0.0022
    CHARGE:  cpu time    1.7107: real time    1.7131
    MIXING:  cpu time    0.2927: real time    0.2932
    --------------------------------------------
      LOOP:  cpu time   21.7520: real time   21.7843

 eigenvalue-minimisations  :    56
 total energy-change (2. order) :-0.9284306E-03  (-0.2070243E-03)
 number of electron      23.9999998 magnetization 
 augmentation part        4.0600594 magnetization 

 Broyden mixing:
  rms(total) = 0.78158E-01    rms(broyden)= 0.78158E-01
  rms(prec ) = 0.78437E-01
  weight for this iteration     100.00

 eigenvalues of (default mixing * dielectric matrix)
  average eigenvalue GAMMA=   1.3468
  2.7695  2.3392  2.1383  0.8887  0.8887  0.7970  0.7970  0.8258  0.6768

 Free energy of the ion-electron system (eV)
  ---------------------------------------------------
  alpha Z        PSCENC =         0.03994862
  Ewald energy   TEWEN  =      1097.69009327
  -Hartree energ DENC   =     -2321.64377028
  -exchange      EXHF   =         0.00000000
  -V(xc)+E(xc)   XCENC  =       104.05795329
  PAW double counting   =      6002.80958423    -6018.21187085
  entropy T*S    EENTRO =        -0.00000000
  eigenvalues    EBANDS =      -370.06058154
  atomic energy  EATOM  =      1469.26766065
  Solvation  Ediel_sol  =         0.00000000
  ---------------------------------------------------
  free energy    TOTEN  =       -36.05098261 eV

  energy without entropy =      -36.05098261  energy(sigma->0) =      -36.05098261


--------------------------------------------------------------------------------------------------------




--------------------------------------- Iteration      1(  15)  ---------------------------------------


    POTLOK:  cpu time   11.5860: real time   11.6017
    SETDIJ:  cpu time    0.0568: real time    0.0568
     EDDAV:  cpu time    7.1875: real time    7.1993
       DOS:  cpu time    0.0021: real time    0.0021
    CHARGE:  cpu time    1.6359: real time    1.6383
    MIXING:  cpu time    0.2935: real time    0.2939
    --------------------------------------------
      LOOP:  cpu time   20.7617: real time   20.7920

 eigenvalue-minimisations  :    48
 total energy-change (2. order) :-0.3072156E-02  (-0.2634392E-03)
 number of electron      23.9999998 magnetization 
 augmentation part        4.0571675 magnetization 

 Broyden mixing:
  rms(total) = 0.50318E-02    rms(broyden)= 0.50317E-02
  rms(prec ) = 0.61099E-02
  weight for this iteration     100.00

 eigenvalues of (default mixing * dielectric matrix)
  average eigenvalue GAMMA=   1.3327
  2.6546  2.6546  2.0989  0.7731  0.7731  0.8700  0.8700  1.0445  0.9434  0.6446

 Free energy of the ion-electron system (eV)
  ---------------------------------------------------
  alpha Z        PSCENC =         0.03994862
  Ewald energy   TEWEN  =      1097.69009327
  -Hartree energ DENC   =     -2321.67513348
  -exchange      EXHF   =         0.00000000
  -V(xc)+E(xc)   XCENC  =       104.04986991
  PAW double counting   =      6053.60624155    -6068.95604527
  entropy T*S    EENTRO =        -0.00000000
  eigenvalues    EBANDS =      -370.07669000
  atomic energy  EATOM  =      1469.26766065
  Solvation  Ediel_sol  =         0.00000000
  ---------------------------------------------------
  free energy    TOTEN  =       -36.05405477 eV

  energy without entropy =      -36.05405477  energy(sigma->0) =      -36.05405477


--------------------------------------------------------------------------------------------------------




--------------------------------------- Iteration      1(  16)  ---------------------------------------


    POTLOK:  cpu time   11.5751: real time   11.5913
    SETDIJ:  cpu time    0.0514: real time    0.0514
     EDDAV:  cpu time    7.1722: real time    7.1835
       DOS:  cpu time    0.0008: real time    0.0008
    CHARGE:  cpu time    1.7358: real time    1.7381
    MIXING:  cpu time    0.2946: real time    0.2951
    --------------------------------------------
      LOOP:  cpu time   20.8300: real time   20.8603

 eigenvalue-minimisations  :    48
 total energy-change (2. order) :-0.1825534E-02  (-0.3930819E-04)
 number of electron      23.9999998 magnetization 
 augmentation part        4.0569541 magnetization 

 Broyden mixing:
  rms(total) = 0.81056E-02    rms(broyden)= 0.81056E-02
  rms(prec ) = 0.85871E-02
  weight for this iteration     100.00

 eigenvalues of (default mixing * dielectric matrix)
  average eigenvalue GAMMA=   1.4577
  3.9410  2.6020  2.0044  2.0044  0.9142  0.8388  0.8388  0.7845  0.7845  0.6610
  0.6610

 Free energy of the ion-electron system (eV)
  ---------------------------------------------------
  alpha Z        PSCENC =         0.03994862
  Ewald energy   TEWEN  =      1097.69009327
  -Hartree energ DENC   =     -2321.70950878
  -exchange      EXHF   =         0.00000000
  -V(xc)+E(xc)   XCENC  =       104.04760536
  PAW double counting   =      6054.06353045    -6069.40921442
  entropy T*S    EENTRO =        -0.00000000
  eigenvalues    EBANDS =      -370.04599545
  atomic energy  EATOM  =      1469.26766065
  Solvation  Ediel_sol  =         0.00000000
  ---------------------------------------------------
  free energy    TOTEN  =       -36.05588030 eV

  energy without entropy =      -36.05588030  energy(sigma->0) =      -36.05588030


--------------------------------------------------------------------------------------------------------




--------------------------------------- Iteration      1(  17)  ---------------------------------------


    POTLOK:  cpu time   11.5934: real time   11.6093
    SETDIJ:  cpu time    0.0531: real time    0.0532
     EDDAV:  cpu time    7.1891: real time    7.2009
       DOS:  cpu time    0.0007: real time    0.0007
    CHARGE:  cpu time    1.6896: real time    1.6919
    MIXING:  cpu time    0.3238: real time    0.3243
    --------------------------------------------
      LOOP:  cpu time   20.8498: real time   20.8804

 eigenvalue-minimisations  :    48
 total energy-change (2. order) :-0.3223123E-02  (-0.5279481E-04)
 number of electron      23.9999998 magnetization 
 augmentation part        4.0565598 magnetization 

 Broyden mixing:
  rms(total) = 0.17229E-01    rms(broyden)= 0.17229E-01
  rms(prec ) = 0.17330E-01
  weight for this iteration     100.00

 eigenvalues of (default mixing * dielectric matrix)
  average eigenvalue GAMMA=   1.4929
  4.9606  2.3060  2.1536  2.1536  0.9833  0.8978  0.8978  0.6503  0.7632  0.7632
  0.6930  0.6930

 Free energy of the ion-electron system (eV)
  ---------------------------------------------------
  alpha Z        PSCENC =         0.03994862
  Ewald energy   TEWEN  =      1097.69009327
  -Hartree energ DENC   =     -2321.76375905
  -exchange      EXHF   =         0.00000000
  -V(xc)+E(xc)   XCENC  =       104.04272022
  PAW double counting   =      6059.10899012    -6074.44617386
  entropy T*S    EENTRO =        -0.00000000
  eigenvalues    EBANDS =      -369.99858338
  atomic energy  EATOM  =      1469.26766065
  Solvation  Ediel_sol  =         0.00000000
  ---------------------------------------------------
  free energy    TOTEN  =       -36.05910342 eV

  energy without entropy =      -36.05910342  energy(sigma->0) =      -36.05910342


--------------------------------------------------------------------------------------------------------




--------------------------------------- Iteration      1(  18)  ---------------------------------------


    POTLOK:  cpu time   11.5906: real time   11.6065
    SETDIJ:  cpu time    0.0539: real time    0.0539
     EDDAV:  cpu time    6.3065: real time    6.3168
       DOS:  cpu time    0.0013: real time    0.0012
    CHARGE:  cpu time    1.6936: real time    1.6960
    MIXING:  cpu time    0.3372: real time    0.3377
    --------------------------------------------
      LOOP:  cpu time   19.9830: real time   20.0121

 eigenvalue-minimisations  :    40
 total energy-change (2. order) :-0.1342335E-02  (-0.1401787E-04)
 number of electron      23.9999998 magnetization 
 augmentation part        4.0564091 magnetization 

 Broyden mixing:
  rms(total) = 0.16296E-01    rms(broyden)= 0.16296E-01
  rms(prec ) = 0.16358E-01
  weight for this iteration     100.00

 eigenvalues of (default mixing * dielectric matrix)
  average eigenvalue GAMMA=   1.5384
  5.6865  2.4147  2.4147  2.0602  1.1116  0.9733  0.9733  0.7866  0.7866  0.7802
  0.7802  0.6435  0.5885

 Free energy of the ion-electron system (eV)
  ---------------------------------------------------
  alpha Z        PSCENC =         0.03994862
  Ewald energy   TEWEN  =      1097.69009327
  -Hartree energ DENC   =     -2321.83994073
  -exchange      EXHF   =         0.00000000
  -V(xc)+E(xc)   XCENC  =       104.04331358
  PAW double counting   =      6059.25492541    -6074.59234613
  entropy T*S    EENTRO =        -0.00000000
  eigenvalues    EBANDS =      -369.92410042
  atomic energy  EATOM  =      1469.26766065
  Solvation  Ediel_sol  =         0.00000000
  ---------------------------------------------------
  free energy    TOTEN  =       -36.06044576 eV

  energy without entropy =      -36.06044576  energy(sigma->0) =      -36.06044576


--------------------------------------------------------------------------------------------------------




--------------------------------------- Iteration      1(  19)  ---------------------------------------


    POTLOK:  cpu time   11.5819: real time   11.5980
    SETDIJ:  cpu time    0.0515: real time    0.0516
     EDDAV:  cpu time    8.0949: real time    8.1079
       DOS:  cpu time    0.0010: real time    0.0010
    CHARGE:  cpu time    1.7312: real time    1.7335
    MIXING:  cpu time    0.3535: real time    0.3540
    --------------------------------------------
      LOOP:  cpu time   21.8141: real time   21.8461

 eigenvalue-minimisations  :    56
 total energy-change (2. order) :-0.1167208E-02  (-0.1074818E-04)
 number of electron      23.9999998 magnetization 
 augmentation part        4.0565559 magnetization 

 Broyden mixing:
  rms(total) = 0.83145E-02    rms(broyden)= 0.83145E-02
  rms(prec ) = 0.83551E-02
  weight for this iteration     100.00

 eigenvalues of (default mixing * dielectric matrix)
  average eigenvalue GAMMA=   1.6430
  6.5687  2.6459  2.6459  2.2535  1.3199  1.3199  0.9455  0.8103  0.8103  0.7841
  0.7841  0.6886  0.7125  0.7125

 Free energy of the ion-electron system (eV)
  ---------------------------------------------------
  alpha Z        PSCENC =         0.03994862
  Ewald energy   TEWEN  =      1097.69009327
  -Hartree energ DENC   =     -2321.89730403
  -exchange      EXHF   =         0.00000000
  -V(xc)+E(xc)   XCENC  =       104.04358439
  PAW double counting   =      6053.43221772    -6068.77469323
  entropy T*S    EENTRO =        -0.00000000
  eigenvalues    EBANDS =      -369.86312034
  atomic energy  EATOM  =      1469.26766065
  Solvation  Ediel_sol  =         0.00000000
  ---------------------------------------------------
  free energy    TOTEN  =       -36.06161296 eV

  energy without entropy =      -36.06161296  energy(sigma->0) =      -36.06161296


--------------------------------------------------------------------------------------------------------




--------------------------------------- Iteration      1(  20)  ---------------------------------------


    POTLOK:  cpu time   11.5998: real time   11.6161
    SETDIJ:  cpu time    0.0526: real time    0.0526
     EDDAV:  cpu time    8.0676: real time    8.0807
       DOS:  cpu time    0.0011: real time    0.0011
    CHARGE:  cpu time    1.7054: real time    1.7077
    MIXING:  cpu time    0.3728: real time    0.3734
    --------------------------------------------
      LOOP:  cpu time   21.7993: real time   21.8317

 eigenvalue-minimisations  :    56
 total energy-change (2. order) :-0.8402691E-03  (-0.6598005E-05)
 number of electron      23.9999998 magnetization 
 augmentation part        4.0568341 magnetization 

 Broyden mixing:
  rms(total) = 0.20981E-02    rms(broyden)= 0.20981E-02
  rms(prec ) = 0.21338E-02
  weight for this iteration     100.00

 eigenvalues of (default mixing * dielectric matrix)
  average eigenvalue GAMMA=   1.7143
  7.0563  3.5779  2.3606  2.3606  1.5350  1.5350  1.0822  0.7801  0.7801  0.8125
  0.8125  0.8476  0.8476  0.6631  0.6631

 Free energy of the ion-electron system (eV)
  ---------------------------------------------------
  alpha Z        PSCENC =         0.03994862
  Ewald energy   TEWEN  =      1097.69009327
  -Hartree energ DENC   =     -2321.91744614
  -exchange      EXHF   =         0.00000000
  -V(xc)+E(xc)   XCENC  =       104.04298689
  PAW double counting   =      6049.31397305    -6064.66001929
  entropy T*S    EENTRO =        -0.00000000
  eigenvalues    EBANDS =      -369.83965027
  atomic energy  EATOM  =      1469.26766065
  Solvation  Ediel_sol  =         0.00000000
  ---------------------------------------------------
  free energy    TOTEN  =       -36.06245323 eV

  energy without entropy =      -36.06245323  energy(sigma->0) =      -36.06245323


--------------------------------------------------------------------------------------------------------




--------------------------------------- Iteration      1(  21)  ---------------------------------------


    POTLOK:  cpu time   11.5738: real time   11.5898
    SETDIJ:  cpu time    0.0536: real time    0.0536
     EDDAV:  cpu time    8.0826: real time    8.0957
       DOS:  cpu time    0.0005: real time    0.0005
    CHARGE:  cpu time    1.7174: real time    1.7198
    MIXING:  cpu time    0.3686: real time    0.3692
    --------------------------------------------
      LOOP:  cpu time   21.7967: real time   21.8287

 eigenvalue-minimisations  :    56
 total energy-change (2. order) :-0.4149490E-03  (-0.2006326E-05)
 number of electron      23.9999998 magnetization 
 augmentation part        4.0569673 magnetization 

 Broyden mixing:
  rms(total) = 0.25053E-02    rms(broyden)= 0.25053E-02
  rms(prec ) = 0.25194E-02
  weight for this iteration     100.00

 eigenvalues of (default mixing * dielectric matrix)
  average eigenvalue GAMMA=   1.7768
  7.6746  3.7945  2.4129  2.4129  2.3220  1.3365  1.3365  0.9364  0.7816  0.7816
  0.8441  0.8441  0.7981  0.7981  0.6772  0.6772

 Free energy of the ion-electron system (eV)
  ---------------------------------------------------
  alpha Z        PSCENC =         0.03994862
  Ewald energy   TEWEN  =      1097.69009327
  -Hartree energ DENC   =     -2321.91952020
  -exchange      EXHF   =         0.00000000
  -V(xc)+E(xc)   XCENC  =       104.04258047
  PAW double counting   =      6045.92105254    -6061.27003018
  entropy T*S    EENTRO =        -0.00000000
  eigenvalues    EBANDS =      -369.83465335
  atomic energy  EATOM  =      1469.26766065
  Solvation  Ediel_sol  =         0.00000000
  ---------------------------------------------------
  free energy    TOTEN  =       -36.06286818 eV

  energy without entropy =      -36.06286818  energy(sigma->0) =      -36.06286818


--------------------------------------------------------------------------------------------------------




--------------------------------------- Iteration      1(  22)  ---------------------------------------


    POTLOK:  cpu time   11.5894: real time   11.6055
    SETDIJ:  cpu time    0.0512: real time    0.0512
     EDDAV:  cpu time    6.2545: real time    6.2648
       DOS:  cpu time    0.0020: real time    0.0020
    CHARGE:  cpu time    1.7410: real time    1.7433
    MIXING:  cpu time    0.3830: real time    0.3836
    --------------------------------------------
      LOOP:  cpu time   20.0211: real time   20.0504

 eigenvalue-minimisations  :    40
 total energy-change (2. order) :-0.2518001E-03  (-0.4453287E-06)
 number of electron      23.9999998 magnetization 
 augmentation part        4.0569376 magnetization 

 Broyden mixing:
  rms(total) = 0.14982E-02    rms(broyden)= 0.14982E-02
  rms(prec ) = 0.15070E-02
  weight for this iteration     100.00

 eigenvalues of (default mixing * dielectric matrix)
  average eigenvalue GAMMA=   1.7872
  8.1827  4.0780  2.4930  2.3905  2.3905  1.3832  1.3832  0.9451  0.9451  0.7813
  0.7813  0.8162  0.8162  0.8172  0.8172  0.6804  0.6804

 Free energy of the ion-electron system (eV)
  ---------------------------------------------------
  alpha Z        PSCENC =         0.03994862
  Ewald energy   TEWEN  =      1097.69009327
  -Hartree energ DENC   =     -2321.91340470
  -exchange      EXHF   =         0.00000000
  -V(xc)+E(xc)   XCENC  =       104.04207710
  PAW double counting   =      6046.81470311    -6062.16325134
  entropy T*S    EENTRO =        -0.00000000
  eigenvalues    EBANDS =      -369.84094668
  atomic energy  EATOM  =      1469.26766065
  Solvation  Ediel_sol  =         0.00000000
  ---------------------------------------------------
  free energy    TOTEN  =       -36.06311998 eV

  energy without entropy =      -36.06311998  energy(sigma->0) =      -36.06311998


--------------------------------------------------------------------------------------------------------




--------------------------------------- Iteration      1(  23)  ---------------------------------------


    POTLOK:  cpu time   11.5643: real time   11.5819
    SETDIJ:  cpu time    0.0508: real time    0.0508
     EDDAV:  cpu time    7.2127: real time    7.2244
       DOS:  cpu time    0.0018: real time    0.0018
    CHARGE:  cpu time    1.7255: real time    1.7279
    MIXING:  cpu time    0.5155: real time    0.5161
    --------------------------------------------
      LOOP:  cpu time   21.0706: real time   21.1029

 eigenvalue-minimisations  :    48
 total energy-change (2. order) :-0.8997480E-04  (-0.8444348E-07)
 number of electron      23.9999998 magnetization 
 augmentation part        4.0569166 magnetization 

 Broyden mixing:
  rms(total) = 0.11662E-02    rms(broyden)= 0.11662E-02
  rms(prec ) = 0.11724E-02
  weight for this iteration     100.00

 eigenvalues of (default mixing * dielectric matrix)
  average eigenvalue GAMMA=   1.8048
  8.2706  4.2344  2.5694  2.5694  2.3730  1.7047  1.7047  1.1507  0.7836  0.7836
  0.8206  0.8206  0.9068  0.9068  0.7680  0.7680  0.6760  0.6760

 Free energy of the ion-electron system (eV)
  ---------------------------------------------------
  alpha Z        PSCENC =         0.03994862
  Ewald energy   TEWEN  =      1097.69009327
  -Hartree energ DENC   =     -2321.91127524
  -exchange      EXHF   =         0.00000000
  -V(xc)+E(xc)   XCENC  =       104.04190109
  PAW double counting   =      6047.08916536    -6062.43747284
  entropy T*S    EENTRO =        -0.00000000
  eigenvalues    EBANDS =      -369.84323086
  atomic energy  EATOM  =      1469.26766065
  Solvation  Ediel_sol  =         0.00000000
  ---------------------------------------------------
  free energy    TOTEN  =       -36.06320996 eV

  energy without entropy =      -36.06320996  energy(sigma->0) =      -36.06320996


--------------------------------------------------------------------------------------------------------




--------------------------------------- Iteration      1(  24)  ---------------------------------------


    POTLOK:  cpu time   11.5761: real time   11.5920
    SETDIJ:  cpu time    0.0578: real time    0.0578
     EDDAV:  cpu time    6.3038: real time    6.3139
       DOS:  cpu time    0.0008: real time    0.0008
    CHARGE:  cpu time    1.6834: real time    1.6858
    MIXING:  cpu time    0.4390: real time    0.4398
    --------------------------------------------
      LOOP:  cpu time   20.0610: real time   20.0901

 eigenvalue-minimisations  :    40
 total energy-change (2. order) :-0.9537577E-04  (-0.9839283E-07)
 number of electron      23.9999998 magnetization 
 augmentation part        4.0568854 magnetization 

 Broyden mixing:
  rms(total) = 0.57055E-03    rms(broyden)= 0.57055E-03
  rms(prec ) = 0.57381E-03
  weight for this iteration     100.00

 eigenvalues of (default mixing * dielectric matrix)
  average eigenvalue GAMMA=   1.8985
  8.8445  5.4508  3.1385  2.6057  2.2928  2.0773  1.5508  1.2252  0.9945  0.9945
  0.7816  0.7816  0.8164  0.8164  0.8250  0.8250  0.6908  0.6908  0.6700

 Free energy of the ion-electron system (eV)
  ---------------------------------------------------
  alpha Z        PSCENC =         0.03994862
  Ewald energy   TEWEN  =      1097.69009327
  -Hartree energ DENC   =     -2321.90601639
  -exchange      EXHF   =         0.00000000
  -V(xc)+E(xc)   XCENC  =       104.04162765
  PAW double counting   =      6047.47004175    -6062.81780258
  entropy T*S    EENTRO =        -0.00000000
  eigenvalues    EBANDS =      -369.84885829
  atomic energy  EATOM  =      1469.26766065
  Solvation  Ediel_sol  =         0.00000000
  ---------------------------------------------------
  free energy    TOTEN  =       -36.06330533 eV

  energy without entropy =      -36.06330533  energy(sigma->0) =      -36.06330533


--------------------------------------------------------------------------------------------------------




--------------------------------------- Iteration      1(  25)  ---------------------------------------


    POTLOK:  cpu time   11.5528: real time   11.5687
    SETDIJ:  cpu time    0.0560: real time    0.0560
     EDDAV:  cpu time    6.2930: real time    6.3032
       DOS:  cpu time    0.0021: real time    0.0021
    CHARGE:  cpu time    1.7389: real time    1.7421
    MIXING:  cpu time    0.4590: real time    0.4598
    --------------------------------------------
      LOOP:  cpu time   20.1017: real time   20.1317

 eigenvalue-minimisations  :    40
 total energy-change (2. order) :-0.5053876E-04  (-0.7861315E-07)
 number of electron      23.9999998 magnetization 
 augmentation part        4.0568781 magnetization 

 Broyden mixing:
  rms(total) = 0.21245E-03    rms(broyden)= 0.21245E-03
  rms(prec ) = 0.21445E-03
  weight for this iteration     100.00

 eigenvalues of (default mixing * dielectric matrix)
  average eigenvalue GAMMA=   1.8696
  9.1767  5.3605  3.1425  2.7704  2.4703  1.8174  1.6081  1.2733  1.2733  0.7811
  0.7811  0.8271  0.8271  0.8132  0.8132  0.8248  0.8248  0.6917  0.6917  0.6237

 Free energy of the ion-electron system (eV)
  ---------------------------------------------------
  alpha Z        PSCENC =         0.03994862
  Ewald energy   TEWEN  =      1097.69009327
  -Hartree energ DENC   =     -2321.90230016
  -exchange      EXHF   =         0.00000000
  -V(xc)+E(xc)   XCENC  =       104.04144329
  PAW double counting   =      6047.76080859    -6063.10825362
  entropy T*S    EENTRO =        -0.00000000
  eigenvalues    EBANDS =      -369.85275650
  atomic energy  EATOM  =      1469.26766065
  Solvation  Ediel_sol  =         0.00000000
  ---------------------------------------------------
  free energy    TOTEN  =       -36.06335587 eV

  energy without entropy =      -36.06335587  energy(sigma->0) =      -36.06335587


--------------------------------------------------------------------------------------------------------




--------------------------------------- Iteration      1(  26)  ---------------------------------------


    POTLOK:  cpu time   11.5475: real time   11.5654
    SETDIJ:  cpu time    0.0543: real time    0.0543
     EDDAV:  cpu time    6.2992: real time    6.3094
       DOS:  cpu time    0.0017: real time    0.0017
    CHARGE:  cpu time    1.6430: real time    1.6454
    MIXING:  cpu time    0.4830: real time    0.4837
    --------------------------------------------
      LOOP:  cpu time   20.0287: real time   20.0600

 eigenvalue-minimisations  :    40
 total energy-change (2. order) :-0.1163961E-04  (-0.4135043E-08)
 number of electron      23.9999998 magnetization 
 augmentation part        4.0568749 magnetization 

 Broyden mixing:
  rms(total) = 0.17885E-03    rms(broyden)= 0.17885E-03
  rms(prec ) = 0.18027E-03
  weight for this iteration     100.00

 eigenvalues of (default mixing * dielectric matrix)
  average eigenvalue GAMMA=   1.9728
  9.3215  5.7687  4.2947  3.0328  2.4114  2.1479  2.1479  1.5682  1.2123  1.0676
  0.7821  0.7821  0.8181  0.8181  0.8553  0.8553  0.7778  0.7778  0.6777  0.6777
  0.6333

 Free energy of the ion-electron system (eV)
  ---------------------------------------------------
  alpha Z        PSCENC =         0.03994862
  Ewald energy   TEWEN  =      1097.69009327
  -Hartree energ DENC   =     -2321.90299266
  -exchange      EXHF   =         0.00000000
  -V(xc)+E(xc)   XCENC  =       104.04145515
  PAW double counting   =      6047.76973194    -6063.11715890
  entropy T*S    EENTRO =        -0.00000000
  eigenvalues    EBANDS =      -369.85210557
  atomic energy  EATOM  =      1469.26766065
  Solvation  Ediel_sol  =         0.00000000
  ---------------------------------------------------
  free energy    TOTEN  =       -36.06336751 eV

  energy without entropy =      -36.06336751  energy(sigma->0) =      -36.06336751


--------------------------------------------------------------------------------------------------------




--------------------------------------- Iteration      1(  27)  ---------------------------------------


    POTLOK:  cpu time   11.5581: real time   11.5742
    SETDIJ:  cpu time    0.0529: real time    0.0529
     EDDAV:  cpu time    5.4216: real time    5.4304
       DOS:  cpu time    0.0011: real time    0.0011
    CHARGE:  cpu time    1.7288: real time    1.7311
    MIXING:  cpu time    0.5840: real time    0.5848
    --------------------------------------------
      LOOP:  cpu time   19.3465: real time   19.3747

 eigenvalue-minimisations  :    32
 total energy-change (2. order) :-0.2170996E-04  (-0.1312393E-07)
 number of electron      23.9999998 magnetization 
 augmentation part        4.0568687 magnetization 

 Broyden mixing:
  rms(total) = 0.62210E-04    rms(broyden)= 0.62210E-04
  rms(prec ) = 0.63086E-04
  weight for this iteration     100.00

 eigenvalues of (default mixing * dielectric matrix)
  average eigenvalue GAMMA=   1.9238
  9.3033  6.0812  4.1683  2.5712  2.5712  2.4985  2.0668  1.5937  1.1420  1.0931
  0.7814  0.7814  0.8180  0.8180  0.8518  0.8518  0.7752  0.7752  0.6876  0.6876
  0.7032  0.7032

 Free energy of the ion-electron system (eV)
  ---------------------------------------------------
  alpha Z        PSCENC =         0.03994862
  Ewald energy   TEWEN  =      1097.69009327
  -Hartree energ DENC   =     -2321.90314295
  -exchange      EXHF   =         0.00000000
  -V(xc)+E(xc)   XCENC  =       104.04145099
  PAW double counting   =      6047.82233190    -6063.16970159
  entropy T*S    EENTRO =        -0.00000000
  eigenvalues    EBANDS =      -369.85203010
  atomic energy  EATOM  =      1469.26766065
  Solvation  Ediel_sol  =         0.00000000
  ---------------------------------------------------
  free energy    TOTEN  =       -36.06338922 eV

  energy without entropy =      -36.06338922  energy(sigma->0) =      -36.06338922


--------------------------------------------------------------------------------------------------------




--------------------------------------- Iteration      1(  28)  ---------------------------------------


    POTLOK:  cpu time   11.5083: real time   11.5243
    SETDIJ:  cpu time    0.0537: real time    0.0537
     EDDAV:  cpu time    6.3080: real time    6.3182
       DOS:  cpu time    0.0014: real time    0.0014
    CHARGE:  cpu time    1.6354: real time    1.6379
    MIXING:  cpu time    0.5109: real time    0.5118
    --------------------------------------------
      LOOP:  cpu time   20.0176: real time   20.0472

 eigenvalue-minimisations  :    40
 total energy-change (2. order) :-0.2664905E-05  (-0.1555479E-08)
 number of electron      23.9999998 magnetization 
 augmentation part        4.0568681 magnetization 

 Broyden mixing:
  rms(total) = 0.91989E-04    rms(broyden)= 0.91989E-04
  rms(prec ) = 0.92473E-04
  weight for this iteration     100.00

 eigenvalues of (default mixing * dielectric matrix)
  average eigenvalue GAMMA=   1.8951
  9.4161  6.1780  4.0950  2.7968  2.7968  2.4440  1.9377  1.6069  1.1350  1.1350
  0.7850  0.7850  0.7817  0.7817  0.8088  0.8088  0.8528  0.8528  0.7707  0.7707
  0.6935  0.6935  0.6611

 Free energy of the ion-electron system (eV)
  ---------------------------------------------------
  alpha Z        PSCENC =         0.03994862
  Ewald energy   TEWEN  =      1097.69009327
  -Hartree energ DENC   =     -2321.90304307
  -exchange      EXHF   =         0.00000000
  -V(xc)+E(xc)   XCENC  =       104.04144739
  PAW double counting   =      6047.87959099    -6063.22692958
  entropy T*S    EENTRO =        -0.00000000
  eigenvalues    EBANDS =      -369.85216015
  atomic energy  EATOM  =      1469.26766065
  Solvation  Ediel_sol  =         0.00000000
  ---------------------------------------------------
  free energy    TOTEN  =       -36.06339189 eV

  energy without entropy =      -36.06339189  energy(sigma->0) =      -36.06339189


--------------------------------------------------------------------------------------------------------




--------------------------------------- Iteration      1(  29)  ---------------------------------------


    POTLOK:  cpu time   11.5207: real time   11.5368
    SETDIJ:  cpu time    0.0530: real time    0.0531
     EDDAV:  cpu time    5.4059: real time    5.4144
       DOS:  cpu time    0.0013: real time    0.0013
    CHARGE:  cpu time    1.7435: real time    1.7458
[...]
     EDDAV:  cpu time    4.5341: real time    4.5415
       DOS:  cpu time    0.0014: real time    0.0014
    CHARGE:  cpu time    1.7327: real time    1.7351
    MIXING:  cpu time    0.5586: real time    0.5595
    --------------------------------------------
      LOOP:  cpu time   18.3848: real time   18.4113

 eigenvalue-minimisations  :    24
 total energy-change (2. order) :-0.3222027E-05  (-0.1298835E-08)
 number of electron      23.9999998 magnetization 
 augmentation part        4.0568708 magnetization 

 Broyden mixing:
  rms(total) = 0.52807E-04    rms(broyden)= 0.52807E-04
  rms(prec ) = 0.52952E-04
  weight for this iteration     100.00

 eigenvalues of (default mixing * dielectric matrix)
  average eigenvalue GAMMA=   1.9446
  9.5662  6.7905  4.5696  2.9268  2.6713  2.6713  2.1195  2.1195  1.4752  1.4752
  1.1603  0.9691  0.9691  0.7822  0.7822  0.8307  0.8307  0.8101  0.8101  0.8418
  0.7008  0.7008  0.6894  0.6894  0.6632

 Free energy of the ion-electron system (eV)
  ---------------------------------------------------
  alpha Z        PSCENC =         0.03994862
  Ewald energy   TEWEN  =      1097.69009327
  -Hartree energ DENC   =     -2321.90345296
  -exchange      EXHF   =         0.00000000
  -V(xc)+E(xc)   XCENC  =       104.04145880
  PAW double counting   =      6047.85406241    -6063.20144577
  entropy T*S    EENTRO =        -0.00000000
  eigenvalues    EBANDS =      -369.85172243
  atomic energy  EATOM  =      1469.26766065
  Solvation  Ediel_sol  =         0.00000000
  ---------------------------------------------------
  free energy    TOTEN  =       -36.06339742 eV

  energy without entropy =      -36.06339742  energy(sigma->0) =      -36.06339742


--------------------------------------------------------------------------------------------------------




--------------------------------------- Iteration      1(  31)  ---------------------------------------


    POTLOK:  cpu time   11.5114: real time   11.5274
    SETDIJ:  cpu time    0.0501: real time    0.0501
     EDDAV:  cpu time    5.4044: real time    5.4129
       DOS:  cpu time    0.0004: real time    0.0004
    CHARGE:  cpu time    1.6787: real time    1.6811
    MIXING:  cpu time    0.5704: real time    0.5713
    --------------------------------------------
      LOOP:  cpu time   19.2154: real time   19.2433

 eigenvalue-minimisations  :    32
 total energy-change (2. order) :-0.1146295E-05  (-0.7765308E-09)
 number of electron      23.9999998 magnetization 
 augmentation part        4.0568716 magnetization 

 Broyden mixing:
  rms(total) = 0.44585E-04    rms(broyden)= 0.44585E-04
  rms(prec ) = 0.44691E-04
  weight for this iteration     100.00

 eigenvalues of (default mixing * dielectric matrix)
  average eigenvalue GAMMA=   1.9240
  9.6150  6.9694  4.7141  3.3266  2.6681  2.4829  2.4829  2.0355  1.5567  1.1551
  1.1551  1.0599  1.0599  0.7825  0.7825  0.8454  0.8454  0.7765  0.7765  0.7581
  0.7581  0.6894  0.7029  0.7029  0.6611  0.6611

 Free energy of the ion-electron system (eV)
  ---------------------------------------------------
  alpha Z        PSCENC =         0.03994862
  Ewald energy   TEWEN  =      1097.69009327
  -Hartree energ DENC   =     -2321.90336999
  -exchange      EXHF   =         0.00000000
  -V(xc)+E(xc)   XCENC  =       104.04145468
  PAW double counting   =      6047.85921263    -6063.20659685
  entropy T*S    EENTRO =        -0.00000000
  eigenvalues    EBANDS =      -369.85180156
  atomic energy  EATOM  =      1469.26766065
  Solvation  Ediel_sol  =         0.00000000
  ---------------------------------------------------
  free energy    TOTEN  =       -36.06339857 eV

  energy without entropy =      -36.06339857  energy(sigma->0) =      -36.06339857


--------------------------------------------------------------------------------------------------------




--------------------------------------- Iteration      1(  32)  ---------------------------------------


    POTLOK:  cpu time   11.5256: real time   11.5430
    SETDIJ:  cpu time    0.0504: real time    0.0504
     EDDAV:  cpu time    5.4009: real time    5.4095
       DOS:  cpu time    0.0010: real time    0.0010
    CHARGE:  cpu time    1.6194: real time    1.6218
    MIXING:  cpu time    0.6534: real time    0.6584
    --------------------------------------------
      LOOP:  cpu time   19.2506: real time   19.2840

 eigenvalue-minimisations  :    32
 total energy-change (2. order) :-0.5291758E-06  (-0.6484253E-09)
 number of electron      23.9999998 magnetization 
 augmentation part        4.0568716 magnetization 

 Broyden mixing:
  rms(total) = 0.27907E-04    rms(broyden)= 0.27907E-04
  rms(prec ) = 0.27993E-04
  weight for this iteration     100.00

 eigenvalues of (default mixing * dielectric matrix)
  average eigenvalue GAMMA=   1.9312
  9.6273  7.0815  4.9097  3.1373  3.1373  2.3955  2.3955  2.2892  1.5202  1.5202
  1.4883  1.0346  1.0346  0.7828  0.7828  0.8366  0.8366  0.7932  0.7932  0.8097
  0.8097  0.7262  0.7053  0.7053  0.6635  0.6637  0.6637

 Free energy of the ion-electron system (eV)
  ---------------------------------------------------
  alpha Z        PSCENC =         0.03994862
  Ewald energy   TEWEN  =      1097.69009327
  -Hartree energ DENC   =     -2321.90346131
  -exchange      EXHF   =         0.00000000
  -V(xc)+E(xc)   XCENC  =       104.04145856
  PAW double counting   =      6047.85012411    -6063.19752007
  entropy T*S    EENTRO =        -0.00000000
  eigenvalues    EBANDS =      -369.85170291
  atomic energy  EATOM  =      1469.26766065
  Solvation  Ediel_sol  =         0.00000000
  ---------------------------------------------------
  free energy    TOTEN  =       -36.06339910 eV

  energy without entropy =      -36.06339910  energy(sigma->0) =      -36.06339910


--------------------------------------------------------------------------------------------------------




--------------------------------------- Iteration      1(  33)  ---------------------------------------


    POTLOK:  cpu time   11.5409: real time   11.5567
    SETDIJ:  cpu time    0.0540: real time    0.0540
     EDDAV:  cpu time    5.4067: real time    5.4153
       DOS:  cpu time    0.0016: real time    0.0016
    CHARGE:  cpu time    1.6294: real time    1.6319
    MIXING:  cpu time    0.6173: real time    0.6183
    --------------------------------------------
      LOOP:  cpu time   19.2500: real time   19.2779

 eigenvalue-minimisations  :    32
 total energy-change (2. order) :-0.8398647E-06  (-0.6134950E-09)
 number of electron      23.9999998 magnetization 
 augmentation part        4.0568725 magnetization 

 Broyden mixing:
  rms(total) = 0.11865E-04    rms(broyden)= 0.11865E-04
  rms(prec ) = 0.11925E-04
  weight for this iteration     100.00

 eigenvalues of (default mixing * dielectric matrix)
  average eigenvalue GAMMA=   1.9773
  9.6866  7.4102  5.3894  3.9668  2.9467  2.9467  2.2227  2.2227  1.9182  1.3967
  1.3967  1.1954  1.1954  0.7825  0.7825  0.8533  0.8533  0.8871  0.8871  0.7975
  0.7975  0.7796  0.7796  0.6990  0.6990  0.6557  0.6557  0.5594

 Free energy of the ion-electron system (eV)
  ---------------------------------------------------
  alpha Z        PSCENC =         0.03994862
  Ewald energy   TEWEN  =      1097.69009327
  -Hartree energ DENC   =     -2321.90341968
  -exchange      EXHF   =         0.00000000
  -V(xc)+E(xc)   XCENC  =       104.04145536
  PAW double counting   =      6047.84296709    -6063.19037156
  entropy T*S    EENTRO =        -0.00000000
  eigenvalues    EBANDS =      -369.85173368
  atomic energy  EATOM  =      1469.26766065
  Solvation  Ediel_sol  =         0.00000000
  ---------------------------------------------------
  free energy    TOTEN  =       -36.06339994 eV

  energy without entropy =      -36.06339994  energy(sigma->0) =      -36.06339994


--------------------------------------------------------------------------------------------------------




--------------------------------------- Iteration      1(  34)  ---------------------------------------


    POTLOK:  cpu time   11.5296: real time   11.5454
    SETDIJ:  cpu time    0.0521: real time    0.0521
     EDDAV:  cpu time    4.5426: real time    4.5499
       DOS:  cpu time    0.0019: real time    0.0019
    CHARGE:  cpu time    1.7311: real time    1.7334
    MIXING:  cpu time    0.6622: real time    0.6632
    --------------------------------------------
      LOOP:  cpu time   18.5195: real time   18.5459

 eigenvalue-minimisations  :    24
 total energy-change (2. order) :-0.3405885E-06  (-0.5074412E-09)
 number of electron      23.9999998 magnetization 
 augmentation part        4.0568729 magnetization 

 Broyden mixing:
  rms(total) = 0.10299E-04    rms(broyden)= 0.10299E-04
  rms(prec ) = 0.10326E-04
  weight for this iteration     100.00

 eigenvalues of (default mixing * dielectric matrix)
  average eigenvalue GAMMA=   1.9730
  9.7163  7.5223  5.6195  3.9287  3.0305  2.7221  2.7221  2.2227  2.0640  1.5557
  1.3534  1.3534  1.1192  0.7824  0.7824  0.8688  0.8688  0.8143  0.8143  0.8642
  0.8642  0.7770  0.7770  0.7205  0.7205  0.7598  0.6709  0.6709  0.5321

 Free energy of the ion-electron system (eV)
  ---------------------------------------------------
  alpha Z        PSCENC =         0.03994862
  Ewald energy   TEWEN  =      1097.69009327
  -Hartree energ DENC   =     -2321.90343994
  -exchange      EXHF   =         0.00000000
  -V(xc)+E(xc)   XCENC  =       104.04145556
  PAW double counting   =      6047.82656993    -6063.17398366
  entropy T*S    EENTRO =        -0.00000000
  eigenvalues    EBANDS =      -369.85170470
  atomic energy  EATOM  =      1469.26766065
  Solvation  Ediel_sol  =         0.00000000
  ---------------------------------------------------
  free energy    TOTEN  =       -36.06340028 eV

  energy without entropy =      -36.06340028  energy(sigma->0) =      -36.06340028


--------------------------------------------------------------------------------------------------------




--------------------------------------- Iteration      1(  35)  ---------------------------------------


    POTLOK:  cpu time   11.5862: real time   11.6053
    SETDIJ:  cpu time    0.0534: real time    0.0535
     EDDAV:  cpu time    5.4194: real time    5.4283
       DOS:  cpu time    0.0011: real time    0.0011
    --------------------------------------------
      LOOP:  cpu time   17.0602: real time   17.0882

 eigenvalue-minimisations  :    32
 total energy-change (2. order) :-0.9795986E-07  (-0.4200604E-09)
 number of electron      23.9999998 magnetization 
 augmentation part        4.0568729 magnetization 

 Free energy of the ion-electron system (eV)
  ---------------------------------------------------
  alpha Z        PSCENC =         0.03994862
  Ewald energy   TEWEN  =      1097.69009327
  -Hartree energ DENC   =     -2321.90343895
  -exchange      EXHF   =         0.00000000
  -V(xc)+E(xc)   XCENC  =       104.04145567
  PAW double counting   =      6047.83056797    -6063.17797930
  entropy T*S    EENTRO =        -0.00000000
  eigenvalues    EBANDS =      -369.85170829
  atomic energy  EATOM  =      1469.26766065
  Solvation  Ediel_sol  =         0.00000000
  ---------------------------------------------------
  free energy    TOTEN  =       -36.06340037 eV

  energy without entropy =      -36.06340037  energy(sigma->0) =      -36.06340037


--------------------------------------------------------------------------------------------------------




 average (electrostatic) potential at core
  the test charge radii are     0.6256  0.8471  0.8742
  (the norm of the test charge is              1.0000)
       1 -41.2423       2 -41.1342       3 -89.3385       4 -93.2894       5 -93.2026
       6 -90.5033
 
 
 
 E-fermi :  -6.9850     XC(G=0):  -0.0386     alpha+bet : -0.0095


 k-point     1 :       0.0000    0.0000    0.0000
  band No.  band energies     occupation 
      1     -29.8359      2.00000
      2     -28.7770      2.00000
      3     -25.2795      2.00000
      4     -14.1254      2.00000
      5     -13.1189      2.00000
      6     -13.1173      2.00000
      7     -12.9897      2.00000
      8     -12.6962      2.00000
      9      -9.4715      2.00000
     10      -9.4693      2.00000
     11      -9.0077      2.00000
     12      -7.0375      2.00000
     13      -1.3778      0.00000
     14      -1.0371      0.00000
     15      -1.0334      0.00000
     16      -0.5242      0.00000


--------------------------------------------------------------------------------------------------------


 soft charge-density along one line, spin component            1
         0         1         2         3         4         5         6         7         8         9
 total charge-density along one line
 
 pseudopotential strength for first ion, spin component:            1
 -2.336  -3.708   0.007  -0.024   0.001
 -3.708  -5.718   0.014  -0.047   0.002
  0.007   0.014  -0.124  -0.008   0.000
 -0.024  -0.047  -0.008  -0.098  -0.001
  0.001   0.002   0.000  -0.001  -0.129
 total augmentation occupancy for first ion, spin component:            1
  2.828  -0.512  -0.259   1.013  -0.038
 -0.512   0.212   0.018  -0.122   0.005
 -0.259   0.018   0.090  -0.088   0.003
  1.013  -0.122  -0.088   0.401  -0.011
 -0.038   0.005   0.003  -0.011   0.104


------------------------ aborting loop because EDIFF is reached ----------------------------------------



 DIPCOR: dipole corrections for dipol
 direction  1 min pos   353, direction  2 min pos   391, direction  3 min pos   378,
 dipolmoment          -0.011509      0.306992      0.302933 electrons x Angstroem
 Tr[quadrupol]        13.830723

 energy correction for charged system         0.000000 eV
 dipol+quadrupol energy correction            0.000131 eV
 added-field ion interaction          0.000000 eV  (added to PSCEN)

 
  *************** adding dipol energy to TOTEN NOW **************** 
    CHARGE:  cpu time    1.6319: real time    1.6345
    FORLOC:  cpu time    0.6106: real time    0.6113
    FORNL :  cpu time    0.1998: real time    0.2001
    STRESS:  cpu time    2.9545: real time    2.9588
    FORHAR:  cpu time    3.3359: real time    3.3436
    MIXING:  cpu time    0.7015: real time    0.7027
    OFIELD:  cpu time    0.0000: real time    0.0000

  FORCE on cell =-STRESS in cart. coord.  units (eV):
  Direction    XX          YY          ZZ          XY          YZ          ZX
  --------------------------------------------------------------------------------------
  Alpha Z     0.03995     0.03995     0.03995
  Ewald    -112.97542  1233.64588   -22.98021     1.34251   -35.32407    -3.42237
  Hartree   500.00454  1305.79359   516.10531     0.40487   -10.65298    -0.61156
  E(xc)    -110.74273  -108.13390  -110.37916     0.00347    -0.09136    -0.01384
  Local    -891.90719 -2933.10158  -968.87722    -1.44069    37.90733     2.92539
  n-local    74.82785    58.39910    70.66329    -0.02004     0.52811     0.15850
  augment   139.29216   123.96524   133.69599    -0.05689     1.49591     0.21298
  Kinetic   401.46025   329.31128   383.33668    -0.21182     5.57338     0.68978
  Fock        0.00000     0.00000     0.00000     0.00000     0.00000     0.00000
  -------------------------------------------------------------------------------------
  Total      -0.00059     9.91956     1.60464     0.02142    -0.56368    -0.06111
  in kB      -0.00002     0.37068     0.05996     0.00080    -0.02106    -0.00228
  external pressure =        0.14 kB  Pullay stress =        0.00 kB


 VOLUME and BASIS-vectors are now :
 -----------------------------------------------------------------------------
  energy-cutoff  :     1000.00
  volume of cell :    42875.00
      direct lattice vectors                 reciprocal lattice vectors
    35.000000000  0.000000000  0.000000000     0.028571429  0.000000000  0.000000000
     0.000000000 35.000000000  0.000000000     0.000000000  0.028571429  0.000000000
     0.000000000  0.000000000 35.000000000     0.000000000  0.000000000  0.028571429

  length of vectors
    35.000000000 35.000000000 35.000000000     0.028571429  0.028571429  0.028571429


 FORCES acting on ions
    electron-ion (+dipol)            ewald-force                    non-local-force                 convergence-correction
 -----------------------------------------------------------------------------------------------
   -.332E+01 -.352E+02 0.875E+02   0.367E+01 0.380E+02 -.967E+02   -.283E+00 -.216E+01 0.745E+01   0.119E-06 0.537E-06 -.321E-05
   0.129E+00 0.670E+02 -.340E+01   -.146E+00 -.767E+02 0.385E+01   0.105E-01 0.781E+01 -.277E+00   0.120E-07 -.318E-05 -.400E-06
   0.167E-01 0.220E+02 -.438E+00   -.166E-01 -.225E+02 0.436E+00   -.441E-03 0.328E+00 0.116E-01   -.908E-08 0.862E-05 -.301E-06
   0.480E-01 -.199E+03 -.126E+01   -.550E-01 0.284E+03 0.145E+01   0.747E-02 -.815E+02 -.196E+00   -.376E-06 -.551E-04 0.159E-05
   0.118E-01 0.281E+03 -.309E+00   -.132E-01 -.368E+03 0.346E+00   0.145E-02 0.834E+02 -.382E-01   -.928E-07 0.712E-04 -.390E-06
   0.140E+01 -.103E+03 -.369E+02   -.344E+01 0.145E+03 0.906E+02   0.198E+01 -.402E+02 -.521E+02   0.182E-06 -.117E-05 -.691E-05
 -----------------------------------------------------------------------------------------------
   -.172E+01 0.324E+02 0.452E+02   0.000E+00 0.000E+00 -.142E-13   0.172E+01 -.324E+02 -.452E+02   -.164E-06 0.209E-04 -.963E-05
 
 
 POSITION                                       TOTAL-FORCE (eV/Angst)
 -----------------------------------------------------------------------------------
      0.03541      4.95416     34.06830         0.065601      0.605130     -1.725866
      0.00000      3.75848      0.00000        -0.006401     -1.912656      0.168640
      0.00000      0.08826      0.00000        -0.000379     -0.188451      0.009949
      0.00000      1.25848      0.00000         0.000460      3.596176     -0.012139
      0.00000     33.91804      0.00000         0.000042     -3.364042     -0.001137
      0.00000      4.71985      0.00000        -0.059323      1.263843      1.560552
 -----------------------------------------------------------------------------------
    total drift:                                0.000009     -0.000302     -0.000076


--------------------------------------------------------------------------------------------------------



  FREE ENERGIE OF THE ION-ELECTRON SYSTEM (eV)
  ---------------------------------------------------
  free  energy   TOTEN  =       -36.06326944 eV

  energy  without entropy=      -36.06326944  energy(sigma->0) =      -36.06326944
 


--------------------------------------------------------------------------------------------------------


    POTLOK:  cpu time   11.5618: real time   11.5776


--------------------------------------------------------------------------------------------------------


 writing wavefunctions
     LOOP+:  cpu time 1047.0559: real time 1048.3827
    4ORBIT:  cpu time    0.0000: real time    0.0000

 total amount of memory used by VASP MPI-rank0  1853416. kBytes
=======================================================================

   base      :      30000. kBytes
   nonl-proj :      55413. kBytes
   fftplans  :     601440. kBytes
   grid      :    1154248. kBytes
   one-center:          1. kBytes
   wavefun   :      12314. kBytes
 
  
  
 General timing and accounting informations for this job:
 ========================================================
  
                  Total CPU time used (sec):     1438.909
                            User time (sec):     1383.447
                          System time (sec):       55.461
                         Elapsed time (sec):     1444.735
  
                   Maximum memory used (kb):     2312024.
                   Average memory used (kb):           0.
  
                          Minor page faults:     31004048
                          Major page faults:          111
                 Voluntary context switches:        16372
