 vasp.6.1.2 22Jul20 (build Jan  6 2021 09:55:43) gamma-only                      
 executed on             LinuxPGI date 2021.03.02  09:38:57
 running on   32 total cores
 distrk:  each k-point on   32 cores,    1 groups
 distr:  one band on NCORE=   8 cores,    4 groups


--------------------------------------------------------------------------------------------------------


 INCAR:
 POTCAR:    PAW_PBE H_s 15May2010                 
 POTCAR:    PAW_PBE C_s 06Sep2000                 
 POTCAR:    PAW_PBE O_s 07Sep2000                 
 POTCAR:    PAW_PBE H_s 15May2010                 
   VRHFIN =H: ultrasoft test                                                                        
   LEXCH  = PE                                                                                      
   EATOM  =    12.4884 eV,    0.9179 Ry                                                             
                                                                                                    
   TITEL  = PAW_PBE H_s 15May2010                                                                   
   LULTRA =        F    use ultrasoft PP ?                                                          
   IUNSCR =        0    unscreen: 0-lin 1-nonlin 2-no                                               
   RPACOR =    0.000    partial core radius                                                         
   POMASS =    1.000; ZVAL   =    1.000    mass and valenz                                          
   RCORE  =    1.300    outmost cutoff radius                                                       
   RWIGS  =    0.700; RWIGS  =    0.370    wigner-seitz radius (au A)                               
   ENMAX  =  200.000; ENMIN  =  150.000 eV                                                          
   RCLOC  =    0.701    cutoff for local pot                                                        
   LCOR   =        T    correct aug charges                                                         
   LPAW   =        T    paw PP                                                                      
   EAUG   =  300.000                                                                                
   RMAX   =    1.330    core radius for proj-oper                                                   
   RAUG   =    1.200    factor for augmentation sphere                                              
   RDEP   =    1.337    radius for radial grids                                                     
   RDEPT  =    1.114    core radius for aug-charge                                                  
                                                                                                    
   Atomic configuration                                                                             
    2 entries                                                                                       
     n  l   j            E        occ.                                                              
     1  0  0.50        -6.4927   1.0000                                                             
     2  1  0.50        -3.4015   0.0000                                                             
   Description                                                                                      
     l       E           TYP  RCUT    TYP  RCUT                                                     
     0     -6.4927494     23  1.300                                                                 
     0      6.8029130     23  1.300                                                                 
     1     -4.0817478     23  1.300                                                                 
  local pseudopotential read in
  atomic valenz-charges read in
  non local Contribution for L=            0  read in
    real space projection operators read in
  non local Contribution for L=            0  read in
    real space projection operators read in
  non local Contribution for L=            1  read in
    real space projection operators read in
    PAW grid and wavefunctions read in
 
   number of l-projection  operators is LMAX  =            3
   number of lm-projection operators is LMMAX =            5
 
 POTCAR:    PAW_PBE C_s 06Sep2000                 
   VRHFIN =C: s2p2                                                                                  
   LEXCH  = PE                                                                                      
   EATOM  =   147.1560 eV,   10.8157 Ry                                                             
                                                                                                    
   TITEL  = PAW_PBE C_s 06Sep2000                                                                   
   LULTRA =        F    use ultrasoft PP ?                                                          
   IUNSCR =        0    unscreen: 0-lin 1-nonlin 2-no                                               
   RPACOR =    0.000    partial core radius                                                         
   POMASS =   12.011; ZVAL   =    4.000    mass and valenz                                          
   RCORE  =    1.850    outmost cutoff radius                                                       
   RWIGS  =    1.890; RWIGS  =    1.000    wigner-seitz radius (au A)                               
   ENMAX  =  273.911; ENMIN  =  205.433 eV                                                          
   RCLOC  =    0.804    cutoff for local pot                                                        
   LCOR   =        T    correct aug charges                                                         
   LPAW   =        T    paw PP                                                                      
   EAUG   =  439.243                                                                                
   DEXC   =    0.000                                                                                
   RMAX   =    1.897    core radius for proj-oper                                                   
   RAUG   =    1.300    factor for augmentation sphere                                              
   RDEP   =    1.940    radius for radial grids                                                     
   RDEPT  =    1.573    core radius for aug-charge                                                  
                                                                                                    
   Atomic configuration                                                                             
    4 entries                                                                                       
     n  l   j            E        occ.                                                              
     1  0  0.50      -273.3789   2.0000                                                             
     2  0  0.50       -13.7508   2.0000                                                             
     2  1  0.50        -5.2854   2.0000                                                             
     3  2  1.50        -1.3606   0.0000                                                             
   Description                                                                                      
     l       E           TYP  RCUT    TYP  RCUT                                                     
     0    -13.7508457     23  1.500                                                                 
     0    -11.0934578     23  1.500                                                                 
     1     -5.2854381     23  1.850                                                                 
     1     -1.3099858     23  1.850                                                                 
  local pseudopotential read in
  atomic valenz-charges read in
  non local Contribution for L=            0  read in
    real space projection operators read in
  non local Contribution for L=            0  read in
    real space projection operators read in
  non local Contribution for L=            1  read in
    real space projection operators read in
  non local Contribution for L=            1  read in
    real space projection operators read in
    PAW grid and wavefunctions read in
 
   number of l-projection  operators is LMAX  =            4
   number of lm-projection operators is LMMAX =            8
 
 POTCAR:    PAW_PBE O_s 07Sep2000                 
   VRHFIN =O: s2p4                                                                                  
   LEXCH  = PE                                                                                      
   EATOM  =   432.3788 eV,   31.7789 Ry                                                             
                                                                                                    
   TITEL  = PAW_PBE O_s 07Sep2000                                                                   
   LULTRA =        F    use ultrasoft PP ?                                                          
   IUNSCR =        0    unscreen: 0-lin 1-nonlin 2-no                                               
   RPACOR =    0.000    partial core radius                                                         
   POMASS =   16.000; ZVAL   =    6.000    mass and valenz                                          
   RCORE  =    1.850    outmost cutoff radius                                                       
   RWIGS  =    1.700; RWIGS  =    0.900    wigner-seitz radius (au A)                               
   ENMAX  =  282.853; ENMIN  =  212.140 eV                                                          
   RCLOC  =    0.804    cutoff for local pot                                                        
   LCOR   =        T    correct aug charges                                                         
   LPAW   =        T    paw PP                                                                      
   EAUG   =  412.352                                                                                
   RMAX   =    1.897    core radius for proj-oper                                                   
   RAUG   =    1.300    factor for augmentation sphere                                              
   RDEP   =    1.878    radius for radial grids                                                     
   RDEPT  =    1.572    core radius for aug-charge                                                  
                                                                                                    
   Atomic configuration                                                                             
    4 entries                                                                                       
     n  l   j            E        occ.                                                              
     1  0  0.50      -514.6923   2.0000                                                             
     2  0  0.50       -23.9615   2.0000                                                             
     2  1  0.50        -9.0305   4.0000                                                             
     3  2  1.50        -1.3606   0.0000                                                             
   Description                                                                                      
     l       E           TYP  RCUT    TYP  RCUT                                                     
     0    -23.9615315     23  1.500                                                                 
     0    -25.3221141     23  1.500                                                                 
     1     -9.0304908     23  1.850                                                                 
     1     -7.3935399     23  1.850                                                                 
  local pseudopotential read in
  atomic valenz-charges read in
  non local Contribution for L=            0  read in
    real space projection operators read in
  non local Contribution for L=            0  read in
    real space projection operators read in
  non local Contribution for L=            1  read in
    real space projection operators read in
  non local Contribution for L=            1  read in
    real space projection operators read in
    PAW grid and wavefunctions read in
 
   number of l-projection  operators is LMAX  =            4
   number of lm-projection operators is LMMAX =            8
 
  PAW_PBE H_s 15May2010                 :
 energy of atom  1       EATOM=  -12.4884
 kinetic energy error for atom=    0.0000 (will be added to EATOM!!)
  PAW_PBE C_s 06Sep2000                 :
 energy of atom  2       EATOM= -147.1560
 kinetic energy error for atom=    0.0002 (will be added to EATOM!!)
  PAW_PBE O_s 07Sep2000                 :
 energy of atom  3       EATOM= -432.3788
 kinetic energy error for atom=    0.0004 (will be added to EATOM!!)
 
 
 POSCAR:  H  C  O
  positions in cartesian coordinates
  No initial velocities read in
 exchange correlation table for  LEXCH =        8
   RHO(1)=    0.500       N(1)  =     2000
   RHO(2)=  100.500       N(2)  =     4000
 


--------------------------------------------------------------------------------------------------------


 ion  position               nearest neighbor table
   1  0.001  0.193  0.973-   6 0.96
   2  0.000  0.159  0.000-   6 0.96
   3  0.000  0.003  0.000-   4 1.17   5 1.17
   4  0.000  0.036  0.000-   3 1.17
   5  0.000  0.969  0.000-   3 1.17
   6  0.000  0.186  0.000-   2 0.96   1 0.96
 
  LATTYP: Found a simple cubic cell.
 ALAT       =    35.0000000000
  
  Lattice vectors:
  
 A1 = (  35.0000000000,   0.0000000000,   0.0000000000)
 A2 = (   0.0000000000,  35.0000000000,   0.0000000000)
 A3 = (   0.0000000000,   0.0000000000,  35.0000000000)


Analysis of symmetry for initial positions (statically):
=====================================================================
 Subroutine PRICEL returns:
 Original cell was already a primitive cell.
 

 Routine SETGRP: Setting up the symmetry group for a 
 simple cubic supercell.


 Subroutine GETGRP returns: Found  1 space group operations
 (whereof  1 operations were pure point group operations)
 out of a pool of 48 trial point group operations.


The static configuration has the point symmetry C_1 .


Analysis of symmetry for dynamics (positions and initial velocities):
=====================================================================
 Subroutine PRICEL returns:
 Original cell was already a primitive cell.
 

 Routine SETGRP: Setting up the symmetry group for a 
 simple cubic supercell.


 Subroutine GETGRP returns: Found  1 space group operations
 (whereof  1 operations were pure point group operations)
 out of a pool of 48 trial point group operations.


The dynamic configuration has the point symmetry C_1 .


 Subroutine INISYM returns: Found  1 space group operations
 (whereof  1 operations are pure point group operations),
 and found     1 'primitive' translations


----------------------------------------------------------------------------------------

                                     Primitive cell                                     

  volume of cell :   42875.0000

  direct lattice vectors                    reciprocal lattice vectors
    35.000000000  0.000000000  0.000000000     0.028571429  0.000000000  0.000000000
     0.000000000 35.000000000  0.000000000     0.000000000  0.028571429  0.000000000
     0.000000000  0.000000000 35.000000000     0.000000000  0.000000000  0.028571429

  length of vectors
    35.000000000 35.000000000 35.000000000     0.028571429  0.028571429  0.028571429

  position of ions in fractional coordinates (direct lattice)
     0.001011704  0.192976117  0.973379868
     0.000000000  0.158813600  0.000000000
     0.000000000  0.002521600  0.000000000
     0.000000000  0.035956457  0.000000000
     0.000000000  0.969086743  0.000000000
     0.000000000  0.186281314  0.000000000

  ion indices of the primitive-cell ions
   primitive index   ion index
                 1           1
                 2           2
                 3           3
                 4           4
                 5           5
                 6           6

----------------------------------------------------------------------------------------

 
 
 KPOINTS: automatic mesh                          

Automatic generation of k-mesh.
Space group operators:
 irot       det(A)        alpha          n_x          n_y          n_z        tau_x        tau_y        tau_z
    1     1.000000     0.000000     1.000000     0.000000     0.000000     0.000000     0.000000     0.000000
 
 Subroutine IBZKPT returns following result:
 ===========================================
 
 Found      1 irreducible k-points:
 
 Following reciprocal coordinates:
            Coordinates               Weight
  0.000000  0.000000  0.000000      1.000000
 
 Following cartesian coordinates:
            Coordinates               Weight
  0.000000  0.000000  0.000000      1.000000
 


--------------------------------------------------------------------------------------------------------




 Dimension of arrays:
   k-points           NKPTS =      1   k-points in BZ     NKDIM =      1   number of bands    NBANDS=     16
   number of dos      NEDOS =    301   number of ions     NIONS =      6
   non local maximal  LDIM  =      4   non local SUM 2l+1 LMDIM =      8
   total plane-waves  NPLWV = ******
   max r-space proj   IRMAX =      1   max aug-charges    IRDMAX=  29269
   dimension x,y,z NGX =   378 NGY =  378 NGZ =  378
   dimension x,y,z NGXF=   756 NGYF=  756 NGZF=  756
   support grid    NGXF=   756 NGYF=  756 NGZF=  756
   ions per type =               2   1   3
   NGX,Y,Z   is equivalent  to a cutoff of  17.95, 17.95, 17.95 a.u.
   NGXF,Y,Z  is equivalent  to a cutoff of  35.91, 35.91, 35.91 a.u.

 SYSTEM =  C                                       
 POSCAR =   H  C  O                                

 Startparameter for this run:
   NWRITE =      2    write-flag & timer
   PREC   = acc       normal or accurate (medium, high low for compatibility)
   ISTART =      0    job   : 0-new  1-cont  2-samecut
   ICHARG =      2    charge: 1-file 2-atom 10-const
   ISPIN  =      1    spin polarized calculation?
   LNONCOLLINEAR =      F non collinear calculations
   LSORBIT =      F    spin-orbit coupling
   INIWAV =      1    electr: 0-lowe 1-rand  2-diag
   LASPH  =      T    aspherical Exc in radial PAW
   METAGGA=      F    non-selfconsistent MetaGGA calc.

 Electronic Relaxation 1
   ENCUT  = 1000.0 eV  73.50 Ry    8.57 a.u.  90.25 90.25 90.25*2*pi/ulx,y,z
   ENINI  = 1000.0     initial cutoff
   ENAUG  =  439.2 eV  augmentation charge cutoff
   NELM   =     60;   NELMIN=  2; NELMDL= -5     # of ELM steps 
   EDIFF  = 0.1E-06   stopping-criterion for ELM
   LREAL  =      F    real-space projection
   NLSPLINE    = F    spline interpolate recip. space projectors
   LCOMPAT=      F    compatible to vasp.4.4
   GGA_COMPAT  = T    GGA compatible to vasp.4.4-vasp.4.6
   LMAXPAW     = -100 max onsite density
   LMAXMIX     =    2 max onsite mixed and CHGCAR
   VOSKOWN=      0    Vosko Wilk Nusair interpolation
   ROPT   =    0.00000   0.00000   0.00000
 Ionic relaxation
   EDIFFG = 0.1E-05   stopping-criterion for IOM
   NSW    =      0    number of steps for IOM
   NBLOCK =      1;   KBLOCK =      1    inner block; outer block 
   IBRION =     -1    ionic relax: 0-MD 1-quasi-New 2-CG
   NFREE  =      0    steps in history (QN), initial steepest desc. (CG)
   ISIF   =      2    stress and relaxation
   IWAVPR =     10    prediction:  0-non 1-charg 2-wave 3-comb
   ISYM   =      2    0-nonsym 1-usesym 2-fastsym
   LCORR  =      T    Harris-Foulkes like correction to forces

   POTIM  = 0.5000    time-step for ionic-motion
   TEIN   =    0.0    initial temperature
   TEBEG  =    0.0;   TEEND  =   0.0 temperature during run
   SMASS  =  -3.00    Nose mass-parameter (am)
   estimated Nose-frequenzy (Omega)   =  0.10E-29 period in steps = 0.13E+47 mass=  -0.280E-25a.u.
   SCALEE = 1.0000    scale energy and forces
   NPACO  =    256;   APACO  = 16.0  distance and # of slots for P.C.
   PSTRESS=    0.0 pullay stress

  Mass of Ions in am
   POMASS =   1.00 12.01 16.00
  Ionic Valenz
   ZVAL   =   1.00  4.00  6.00
  Atomic Wigner-Seitz radii
   RWIGS  =  -1.00 -1.00 -1.00
  virtual crystal weights 
   VCA    =   1.00  1.00  1.00
   NELECT =      24.0000    total number of electrons
   NUPDOWN=      -1.0000    fix difference up-down

 DOS related values:
   EMIN   =  10.00;   EMAX   =-10.00  energy-range for DOS
   EFERMI =   0.00
   ISMEAR =     0;   SIGMA  =   0.01  broadening in eV -4-tet -1-fermi 0-gaus

 Electronic relaxation 2 (details)
   IALGO  =     38    algorithm
   LDIAG  =      T    sub-space diagonalisation (order eigenvalues)
   LSUBROT=      F    optimize rotation matrix (better conditioning)
   TURBO    =      0    0=normal 1=particle mesh
   IRESTART =      0    0=no restart 2=restart with 2 vectors
   NREBOOT  =      0    no. of reboots
   NMIN     =      0    reboot dimension
   EREF     =   0.00    reference energy to select bands
   IMIX   =      4    mixing-type and parameters
     AMIX     =   0.40;   BMIX     =  1.00
     AMIX_MAG =   1.60;   BMIX_MAG =  1.00
     AMIN     =   0.10
     WC   =   100.;   INIMIX=   1;  MIXPRE=   1;  MAXMIX= -45

 Intra band minimization:
   WEIMIN = 0.0000     energy-eigenvalue tresh-hold
   EBREAK =  0.16E-08  absolut break condition
   DEPER  =   0.30     relativ break condition  

   TIME   =   0.40     timestep for ELM

  volume/ion in A,a.u.               =    7145.83     48222.46
  Fermi-wavevector in a.u.,A,eV,Ry     =   0.134920  0.254962  0.247673  0.018203
  Thomas-Fermi vector in A             =   0.783236
 
 Write flags
   LWAVE        =      T    write WAVECAR
   LDOWNSAMPLE  =      F    k-point downsampling of WAVECAR
   LCHARG       =      T    write CHGCAR
   LVTOT        =      F    write LOCPOT, total local potential
   LVHAR        =      F    write LOCPOT, Hartree potential only
   LELF         =      F    write electronic localiz. function (ELF)
   LORBIT       =      0    0 simple, 1 ext, 2 COOP (PROOUT), +10 PAW based schemes


 Dipole corrections
   LMONO  =      F    monopole corrections only (constant potential shift)
   LDIPOL =      F    correct potential (dipole corrections)
   IDIPOL =      4    1-x, 2-y, 3-z, 4-all directions 
   EPSILON=  1.0000000 bulk dielectric constant

 Exchange correlation treatment:
   GGA     =    --    GGA type
   LEXCH   =     8    internal setting for exchange type
   VOSKOWN=      0    Vosko Wilk Nusair interpolation
   LHFCALC =     F    Hartree Fock is set to
   LHFONE  =     F    Hartree Fock one center treatment
   AEXX    =    0.0000 exact exchange contribution

 Linear response parameters
   LEPSILON=     F    determine dielectric tensor
   LRPA    =     F    only Hartree local field effects (RPA)
   LNABLA  =     F    use nabla operator in PAW spheres
   LVEL    =     F    velocity operator in full k-point grid
   LINTERFAST=   F  fast interpolation
   KINTER  =     0    interpolate to denser k-point grid
   CSHIFT  =0.1000    complex shift for real part using Kramers Kronig
   OMEGAMAX=  -1.0    maximum frequency
   DEG_THRESHOLD= 0.2000000E-02 threshold for treating states as degnerate
   RTIME   =   -0.100 relaxation time in fs
  (WPLASMAI=    0.000 imaginary part of plasma frequency in eV, 0.658/RTIME)
   DFIELD  = 0.0000000 0.0000000 0.0000000 field for delta impulse in time
 
 Orbital magnetization related:
   ORBITALMAG=     F  switch on orbital magnetization
   LCHIMAG   =     F  perturbation theory with respect to B field
   DQ        =  0.001000  dq finite difference perturbation B field
   LLRAUG    =     F  two centre corrections for induced B field



--------------------------------------------------------------------------------------------------------


 Static calculation
 charge density and potential will be updated during run
 non-spin polarized calculation
 Variant of blocked Davidson
 Davidson routine will perform the subspace rotation
 perform sub-space diagonalisation
    after iterative eigenvector-optimisation
 modified Broyden-mixing scheme, WC =      100.0
 initial mixing is a Kerker type mixing with AMIX =  0.4000 and BMIX =      1.0000
 Hartree-type preconditioning will be used
 using additional bands             4
 reciprocal scheme for non local part
 calculate Harris-corrections to forces 
   (improved forces if not selfconsistent)
 use gradient corrections 
 use of overlap-Matrix (Vanderbilt PP)
 Gauss-broadening in eV      SIGMA  =   0.01


--------------------------------------------------------------------------------------------------------


  energy-cutoff  :     1000.00
  volume of cell :    42875.00
      direct lattice vectors                 reciprocal lattice vectors
    35.000000000  0.000000000  0.000000000     0.028571429  0.000000000  0.000000000
     0.000000000 35.000000000  0.000000000     0.000000000  0.028571429  0.000000000
     0.000000000  0.000000000 35.000000000     0.000000000  0.000000000  0.028571429

  length of vectors
    35.000000000 35.000000000 35.000000000     0.028571429  0.028571429  0.028571429


 
 k-points in units of 2pi/SCALE and weight: automatic mesh                          
   0.00000000  0.00000000  0.00000000       1.000
 
 k-points in reciprocal lattice and weights: automatic mesh                          
   0.00000000  0.00000000  0.00000000       1.000
 
 position of ions in fractional coordinates (direct lattice) 
   0.00101170  0.19297612  0.97337987
   0.00000000  0.15881360  0.00000000
   0.00000000  0.00252160  0.00000000
   0.00000000  0.03595646  0.00000000
   0.00000000  0.96908674  0.00000000
   0.00000000  0.18628131  0.00000000
 
 position of ions in cartesian coordinates  (Angst):
   0.03540965  6.75416408 34.06829539
   0.00000000  5.55847600  0.00000000
   0.00000000  0.08825600  0.00000000
   0.00000000  1.25847600  0.00000000
   0.00000000 33.91803600  0.00000000
   0.00000000  6.51984600  0.00000000
 


--------------------------------------------------------------------------------------------------------


 use parallel FFT for orbitals z direction half grid
 k-point   1 :   0.0000 0.0000 0.0000  plane waves: 1539209

 maximum and minimum number of plane-waves per node :    192406   192397

 maximum number of plane-waves:   1539209
 maximum index in each direction: 
   IXMAX=   90   IYMAX=   90   IZMAX=   90
   IXMIN=  -90   IYMIN=  -90   IZMIN=    0


 parallel 3D FFT for wavefunctions:
    minimum data exchange during FFTs selected (reduces bandwidth)
 parallel 3D FFT for charge:
    minimum data exchange during FFTs selected (reduces bandwidth)


 total amount of memory used by VASP MPI-rank0  1853416. kBytes
=======================================================================

   base      :      30000. kBytes
   nonl-proj :      55413. kBytes
   fftplans  :     601440. kBytes
   grid      :    1154248. kBytes
   one-center:          1. kBytes
   wavefun   :      12314. kBytes
 
     INWAV:  cpu time    0.0000: real time    0.0000
 Broyden mixing: mesh for mixing (old mesh)
   NGX =181   NGY =181   NGZ =181
  (NGX  =756   NGY  =756   NGZ  =756)
  gives a total of ****** points

 initial charge density was supplied:
 charge density of overlapping atoms calculated
 number of electron      24.0000000 magnetization 
 keeping initial charge density in first step


--------------------------------------------------------------------------------------------------------


 Maximum index for augmentation-charges          1120 (set IRDMAX)


--------------------------------------------------------------------------------------------------------


 First call to EWALD:  gamma=   0.051
 Maximum number of real-space cells 3x 3x 3
 Maximum number of reciprocal cells 3x 3x 3

    FEWALD:  cpu time    0.0007: real time    0.0007


--------------------------------------- Iteration      1(   1)  ---------------------------------------


    POTLOK:  cpu time   11.3821: real time   11.3974
    SETDIJ:  cpu time    0.0433: real time    0.0462
     EDDAV:  cpu time    7.4906: real time    7.5430
       DOS:  cpu time    0.0151: real time    0.0151
    --------------------------------------------
      LOOP:  cpu time   18.9311: real time   19.0017

 eigenvalue-minimisations  :    48
 total energy-change (2. order) : 0.2418445E+03  (-0.3930496E+03)
 number of electron      24.0000000 magnetization 
 augmentation part       24.0000000 magnetization 

 Free energy of the ion-electron system (eV)
  ---------------------------------------------------
  alpha Z        PSCENC =         0.03994862
  Ewald energy   TEWEN  =       968.41906180
  -Hartree energ DENC   =     -2124.03708039
  -exchange      EXHF   =         0.00000000
  -V(xc)+E(xc)   XCENC  =       100.10628094
  PAW double counting   =      1147.08281512    -1160.42820606
  entropy T*S    EENTRO =        -0.00000000
  eigenvalues    EBANDS =      -158.60599999
  atomic energy  EATOM  =      1469.26766065
  Solvation  Ediel_sol  =         0.00000000
  ---------------------------------------------------
  free energy    TOTEN  =       241.84448068 eV

  energy without entropy =      241.84448068  energy(sigma->0) =      241.84448068


--------------------------------------------------------------------------------------------------------




--------------------------------------- Iteration      1(   2)  ---------------------------------------


     EDDAV:  cpu time    9.4624: real time    9.4757
       DOS:  cpu time    0.0012: real time    0.0012
    --------------------------------------------
      LOOP:  cpu time    9.4636: real time    9.4769

 eigenvalue-minimisations  :    64
 total energy-change (2. order) :-0.1662714E+03  (-0.1659987E+03)
 number of electron      24.0000000 magnetization 
 augmentation part       24.0000000 magnetization 

 Free energy of the ion-electron system (eV)
  ---------------------------------------------------
  alpha Z        PSCENC =         0.03994862
  Ewald energy   TEWEN  =       968.41906180
  -Hartree energ DENC   =     -2124.03708039
  -exchange      EXHF   =         0.00000000
  -V(xc)+E(xc)   XCENC  =       100.10628094
  PAW double counting   =      1147.08281512    -1160.42820606
  entropy T*S    EENTRO =        -0.00000000
  eigenvalues    EBANDS =      -324.87741094
  atomic energy  EATOM  =      1469.26766065
  Solvation  Ediel_sol  =         0.00000000
  ---------------------------------------------------
  free energy    TOTEN  =        75.57306973 eV

  energy without entropy =       75.57306973  energy(sigma->0) =       75.57306973


--------------------------------------------------------------------------------------------------------




--------------------------------------- Iteration      1(   3)  ---------------------------------------


     EDDAV:  cpu time    6.6998: real time    6.7182
       DOS:  cpu time    0.0046: real time    0.0046
    --------------------------------------------
      LOOP:  cpu time    6.7044: real time    6.7229

 eigenvalue-minimisations  :    40
 total energy-change (2. order) :-0.9646913E+02  (-0.9644404E+02)
 number of electron      24.0000000 magnetization 
 augmentation part       24.0000000 magnetization 

 Free energy of the ion-electron system (eV)
  ---------------------------------------------------
  alpha Z        PSCENC =         0.03994862
  Ewald energy   TEWEN  =       968.41906180
  -Hartree energ DENC   =     -2124.03708039
  -exchange      EXHF   =         0.00000000
  -V(xc)+E(xc)   XCENC  =       100.10628094
  PAW double counting   =      1147.08281512    -1160.42820606
  entropy T*S    EENTRO =        -0.00000000
  eigenvalues    EBANDS =      -421.34654370
  atomic energy  EATOM  =      1469.26766065
  Solvation  Ediel_sol  =         0.00000000
  ---------------------------------------------------
  free energy    TOTEN  =       -20.89606303 eV

  energy without entropy =      -20.89606303  energy(sigma->0) =      -20.89606303


--------------------------------------------------------------------------------------------------------




--------------------------------------- Iteration      1(   4)  ---------------------------------------


     EDDAV:  cpu time    5.7237: real time    5.7319
       DOS:  cpu time    0.0045: real time    0.0045
    --------------------------------------------
      LOOP:  cpu time    5.7282: real time    5.7364

 eigenvalue-minimisations  :    32
 total energy-change (2. order) :-0.1884988E+02  (-0.1884951E+02)
 number of electron      24.0000000 magnetization 
 augmentation part       24.0000000 magnetization 

 Free energy of the ion-electron system (eV)
  ---------------------------------------------------
  alpha Z        PSCENC =         0.03994862
  Ewald energy   TEWEN  =       968.41906180
  -Hartree energ DENC   =     -2124.03708039
  -exchange      EXHF   =         0.00000000
  -V(xc)+E(xc)   XCENC  =       100.10628094
  PAW double counting   =      1147.08281512    -1160.42820606
  entropy T*S    EENTRO =        -0.00000000
  eigenvalues    EBANDS =      -440.19642622
  atomic energy  EATOM  =      1469.26766065
  Solvation  Ediel_sol  =         0.00000000
  ---------------------------------------------------
  free energy    TOTEN  =       -39.74594555 eV

  energy without entropy =      -39.74594555  energy(sigma->0) =      -39.74594555


--------------------------------------------------------------------------------------------------------




--------------------------------------- Iteration      1(   5)  ---------------------------------------


     EDDAV:  cpu time    7.5800: real time    7.5908
       DOS:  cpu time    0.0015: real time    0.0015
    CHARGE:  cpu time    1.8023: real time    1.8048
    MIXING:  cpu time    0.2601: real time    0.2604
    --------------------------------------------
      LOOP:  cpu time    9.6439: real time    9.6575

 eigenvalue-minimisations  :    48
 total energy-change (2. order) :-0.2988305E+00  (-0.2988108E+00)
 number of electron      23.9999998 magnetization 
 augmentation part        4.6513789 magnetization 

 Broyden mixing:
  rms(total) = 0.49361E+01    rms(broyden)= 0.49361E+01
  rms(prec ) = 0.49443E+01
  weight for this iteration     100.00

 Free energy of the ion-electron system (eV)
  ---------------------------------------------------
  alpha Z        PSCENC =         0.03994862
  Ewald energy   TEWEN  =       968.41906180
  -Hartree energ DENC   =     -2124.03708039
  -exchange      EXHF   =         0.00000000
  -V(xc)+E(xc)   XCENC  =       100.10628094
  PAW double counting   =      1147.08281512    -1160.42820606
  entropy T*S    EENTRO =        -0.00000000
  eigenvalues    EBANDS =      -440.49525668
  atomic energy  EATOM  =      1469.26766065
  Solvation  Ediel_sol  =         0.00000000
  ---------------------------------------------------
  free energy    TOTEN  =       -40.04477601 eV

  energy without entropy =      -40.04477601  energy(sigma->0) =      -40.04477601


--------------------------------------------------------------------------------------------------------




--------------------------------------- Iteration      1(   6)  ---------------------------------------


    POTLOK:  cpu time   11.2735: real time   11.2896
    SETDIJ:  cpu time    0.0458: real time    0.0458
     EDDAV:  cpu time    5.7459: real time    5.7541
       DOS:  cpu time    0.0001: real time    0.0001
    CHARGE:  cpu time    1.7659: real time    1.7685
    MIXING:  cpu time    0.2433: real time    0.2510
    --------------------------------------------
      LOOP:  cpu time   19.0746: real time   19.1091

 eigenvalue-minimisations  :    32
 total energy-change (2. order) : 0.3705438E+01  (-0.2029255E+01)
 number of electron      23.9999998 magnetization 
 augmentation part        4.0483408 magnetization 

 Broyden mixing:
  rms(total) = 0.52484E+01    rms(broyden)= 0.52484E+01
  rms(prec ) = 0.52490E+01
  weight for this iteration     100.00

 eigenvalues of (default mixing * dielectric matrix)
  average eigenvalue GAMMA=   0.1491
  0.1491

 Free energy of the ion-electron system (eV)
  ---------------------------------------------------
  alpha Z        PSCENC =         0.03994862
  Ewald energy   TEWEN  =       968.41906180
  -Hartree energ DENC   =     -2172.88568825
  -exchange      EXHF   =         0.00000000
  -V(xc)+E(xc)   XCENC  =       102.98638608
  PAW double counting   =      2247.82925738    -2263.74754577
  entropy T*S    EENTRO =        -0.00000000
  eigenvalues    EBANDS =      -388.24841894
  atomic energy  EATOM  =      1469.26766065
  Solvation  Ediel_sol  =         0.00000000
  ---------------------------------------------------
  free energy    TOTEN  =       -36.33933844 eV

  energy without entropy =      -36.33933844  energy(sigma->0) =      -36.33933844


--------------------------------------------------------------------------------------------------------




--------------------------------------- Iteration      1(   7)  ---------------------------------------


    POTLOK:  cpu time   11.2484: real time   11.2653
    SETDIJ:  cpu time    0.0475: real time    0.0475
     EDDAV:  cpu time    8.5982: real time    8.6103
       DOS:  cpu time    0.0014: real time    0.0014
    CHARGE:  cpu time    1.7748: real time    1.7772
    MIXING:  cpu time    0.2442: real time    0.2446
    --------------------------------------------
      LOOP:  cpu time   21.9145: real time   21.9463

 eigenvalue-minimisations  :    56
 total energy-change (2. order) :-0.2538394E-01  (-0.7552630E-01)
 number of electron      23.9999998 magnetization 
 augmentation part        4.0636882 magnetization 

 Broyden mixing:
  rms(total) = 0.47951E+01    rms(broyden)= 0.47951E+01
  rms(prec ) = 0.47957E+01
  weight for this iteration     100.00

 eigenvalues of (default mixing * dielectric matrix)
  average eigenvalue GAMMA=   1.1282
  1.1282  1.1282

 Free energy of the ion-electron system (eV)
  ---------------------------------------------------
  alpha Z        PSCENC =         0.03994862
  Ewald energy   TEWEN  =       968.41906180
  -Hartree energ DENC   =     -2174.07097565
  -exchange      EXHF   =         0.00000000
  -V(xc)+E(xc)   XCENC  =       103.04150330
  PAW double counting   =      2459.57514539    -2475.43107301
  entropy T*S    EENTRO =        -0.00000000
  eigenvalues    EBANDS =      -387.20599347
  atomic energy  EATOM  =      1469.26766065
  Solvation  Ediel_sol  =         0.00000000
  ---------------------------------------------------
  free energy    TOTEN  =       -36.36472238 eV

  energy without entropy =      -36.36472238  energy(sigma->0) =      -36.36472238


--------------------------------------------------------------------------------------------------------




--------------------------------------- Iteration      1(   8)  ---------------------------------------


    POTLOK:  cpu time   11.2601: real time   11.2807
    SETDIJ:  cpu time    0.0481: real time    0.0481
     EDDAV:  cpu time    7.6010: real time    7.6216
       DOS:  cpu time    0.0006: real time    0.0006
    CHARGE:  cpu time    1.7554: real time    1.7584
    MIXING:  cpu time    0.2572: real time    0.2575
    --------------------------------------------
      LOOP:  cpu time   20.9224: real time   20.9670

 eigenvalue-minimisations  :    48
 total energy-change (2. order) :-0.8998565E-01  (-0.5124867E+00)
 number of electron      23.9999998 magnetization 
 augmentation part        4.1805384 magnetization 

 Broyden mixing:
  rms(total) = 0.16820E+01    rms(broyden)= 0.16820E+01
  rms(prec ) = 0.16853E+01
  weight for this iteration     100.00

 eigenvalues of (default mixing * dielectric matrix)
  average eigenvalue GAMMA=   1.2562
  2.2945  0.7370  0.7370

 Free energy of the ion-electron system (eV)
  ---------------------------------------------------
  alpha Z        PSCENC =         0.03994862
  Ewald energy   TEWEN  =       968.41906180
  -Hartree energ DENC   =     -2187.52741724
  -exchange      EXHF   =         0.00000000
  -V(xc)+E(xc)   XCENC  =       103.60076343
  PAW double counting   =      3839.71845545    -3855.39913340
  entropy T*S    EENTRO =        -0.00000000
  eigenvalues    EBANDS =      -374.57404732
  atomic energy  EATOM  =      1469.26766065
  Solvation  Ediel_sol  =         0.00000000
  ---------------------------------------------------
  free energy    TOTEN  =       -36.45470803 eV

  energy without entropy =      -36.45470803  energy(sigma->0) =      -36.45470803


--------------------------------------------------------------------------------------------------------




--------------------------------------- Iteration      1(   9)  ---------------------------------------


    POTLOK:  cpu time   11.2557: real time   11.2800
    SETDIJ:  cpu time    0.0477: real time    0.0477
     EDDAV:  cpu time    8.5712: real time    8.5834
       DOS:  cpu time    0.0036: real time    0.0036
    CHARGE:  cpu time    1.7560: real time    1.7584
    MIXING:  cpu time    0.2647: real time    0.2651
    --------------------------------------------
      LOOP:  cpu time   21.8989: real time   21.9382

 eigenvalue-minimisations  :    56
 total energy-change (2. order) : 0.3265457E+00  (-0.9709898E-01)
 number of electron      23.9999998 magnetization 
 augmentation part        4.0788955 magnetization 

 Broyden mixing:
  rms(total) = 0.10245E+01    rms(broyden)= 0.10245E+01
  rms(prec ) = 0.10260E+01
  weight for this iteration     100.00

 eigenvalues of (default mixing * dielectric matrix)
  average eigenvalue GAMMA=   1.2196
  2.5534  0.7078  0.7078  0.9096

 Free energy of the ion-electron system (eV)
  ---------------------------------------------------
  alpha Z        PSCENC =         0.03994862
  Ewald energy   TEWEN  =       968.41906180
  -Hartree energ DENC   =     -2197.77620539
  -exchange      EXHF   =         0.00000000
  -V(xc)+E(xc)   XCENC  =       104.24113030
  PAW double counting   =      5185.23505746    -5201.19347462
  entropy T*S    EENTRO =        -0.00000000
  eigenvalues    EBANDS =      -364.36134111
  atomic energy  EATOM  =      1469.26766065
  Solvation  Ediel_sol  =         0.00000000
  ---------------------------------------------------
  free energy    TOTEN  =       -36.12816230 eV

  energy without entropy =      -36.12816230  energy(sigma->0) =      -36.12816230


--------------------------------------------------------------------------------------------------------




--------------------------------------- Iteration      1(  10)  ---------------------------------------


    POTLOK:  cpu time   11.2410: real time   11.2589
    SETDIJ:  cpu time    0.0467: real time    0.0467
     EDDAV:  cpu time    8.6316: real time    8.6485
       DOS:  cpu time    0.0055: real time    0.0055
    CHARGE:  cpu time    1.7865: real time    1.7889
    MIXING:  cpu time    0.2610: real time    0.2614
    --------------------------------------------
      LOOP:  cpu time   21.9723: real time   22.0099

 eigenvalue-minimisations  :    56
 total energy-change (2. order) : 0.5414102E-01  (-0.5361330E-02)
 number of electron      23.9999998 magnetization 
 augmentation part        4.0787280 magnetization 

 Broyden mixing:
  rms(total) = 0.78146E+00    rms(broyden)= 0.78146E+00
  rms(prec ) = 0.78272E+00
  weight for this iteration     100.00

 eigenvalues of (default mixing * dielectric matrix)
  average eigenvalue GAMMA=   1.2708
  2.3263  1.3233  0.8641  0.8641  0.9762

 Free energy of the ion-electron system (eV)
  ---------------------------------------------------
  alpha Z        PSCENC =         0.03994862
  Ewald energy   TEWEN  =       968.41906180
  -Hartree energ DENC   =     -2196.84759873
  -exchange      EXHF   =         0.00000000
  -V(xc)+E(xc)   XCENC  =       104.19133392
  PAW double counting   =      5580.76826320    -5596.52637021
  entropy T*S    EENTRO =        -0.00000000
  eigenvalues    EBANDS =      -365.38632052
  atomic energy  EATOM  =      1469.26766065
  Solvation  Ediel_sol  =         0.00000000
  ---------------------------------------------------
  free energy    TOTEN  =       -36.07402128 eV

  energy without entropy =      -36.07402128  energy(sigma->0) =      -36.07402128


--------------------------------------------------------------------------------------------------------




--------------------------------------- Iteration      1(  11)  ---------------------------------------


    POTLOK:  cpu time   11.2441: real time   11.2639
    SETDIJ:  cpu time    0.0508: real time    0.0508
     EDDAV:  cpu time    8.5329: real time    8.5543
       DOS:  cpu time    0.0024: real time    0.0024
    CHARGE:  cpu time    1.7674: real time    1.7698
    MIXING:  cpu time    0.2789: real time    0.2793
    --------------------------------------------
      LOOP:  cpu time   21.8765: real time   21.9204

 eigenvalue-minimisations  :    56
 total energy-change (2. order) : 0.6692764E-01  (-0.1727417E-01)
 number of electron      23.9999998 magnetization 
 augmentation part        4.0679678 magnetization 

 Broyden mixing:
  rms(total) = 0.33810E+00    rms(broyden)= 0.33810E+00
  rms(prec ) = 0.33864E+00
  weight for this iteration     100.00

 eigenvalues of (default mixing * dielectric matrix)
  average eigenvalue GAMMA=   1.2421
  2.3727  1.3488  1.3488  0.9028  0.7398  0.7398

 Free energy of the ion-electron system (eV)
  ---------------------------------------------------
  alpha Z        PSCENC =         0.03994862
  Ewald energy   TEWEN  =       968.41906180
  -Hartree energ DENC   =     -2194.37581459
  -exchange      EXHF   =         0.00000000
  -V(xc)+E(xc)   XCENC  =       104.05791672
  PAW double counting   =      5801.59294076    -5817.10992597
  entropy T*S    EENTRO =        -0.00000000
  eigenvalues    EBANDS =      -367.89888162
  atomic energy  EATOM  =      1469.26766065
  Solvation  Ediel_sol  =         0.00000000
  ---------------------------------------------------
  free energy    TOTEN  =       -36.00709364 eV

  energy without entropy =      -36.00709364  energy(sigma->0) =      -36.00709364


--------------------------------------------------------------------------------------------------------




--------------------------------------- Iteration      1(  12)  ---------------------------------------


    POTLOK:  cpu time   11.2851: real time   11.3054
    SETDIJ:  cpu time    0.0459: real time    0.0459
     EDDAV:  cpu time    8.5080: real time    8.5202
       DOS:  cpu time    0.0006: real time    0.0006
    CHARGE:  cpu time    1.7599: real time    1.7694
    MIXING:  cpu time    0.2888: real time    0.2892
    --------------------------------------------
      LOOP:  cpu time   21.8883: real time   21.9307

 eigenvalue-minimisations  :    56
 total energy-change (2. order) : 0.4211582E-02  (-0.1052806E-02)
 number of electron      23.9999998 magnetization 
 augmentation part        4.0627146 magnetization 

 Broyden mixing:
  rms(total) = 0.22120E+00    rms(broyden)= 0.22120E+00
  rms(prec ) = 0.22161E+00
  weight for this iteration     100.00

 eigenvalues of (default mixing * dielectric matrix)
  average eigenvalue GAMMA=   1.1752
  2.3814  1.4583  1.4583  0.7020  0.7020  0.8992  0.6253

 Free energy of the ion-electron system (eV)
  ---------------------------------------------------
  alpha Z        PSCENC =         0.03994862
  Ewald energy   TEWEN  =       968.41906180
  -Hartree energ DENC   =     -2194.37007300
  -exchange      EXHF   =         0.00000000
  -V(xc)+E(xc)   XCENC  =       104.05392732
  PAW double counting   =      5891.95850520    -5907.42050012
  entropy T*S    EENTRO =        -0.00000000
  eigenvalues    EBANDS =      -367.95141253
  atomic energy  EATOM  =      1469.26766065
  Solvation  Ediel_sol  =         0.00000000
  ---------------------------------------------------
  free energy    TOTEN  =       -36.00288206 eV

  energy without entropy =      -36.00288206  energy(sigma->0) =      -36.00288206


--------------------------------------------------------------------------------------------------------




--------------------------------------- Iteration      1(  13)  ---------------------------------------


    POTLOK:  cpu time   11.2454: real time   11.2690
    SETDIJ:  cpu time    0.0497: real time    0.0498
     EDDAV:  cpu time    8.5229: real time    8.5390
       DOS:  cpu time    0.0025: real time    0.0025
    CHARGE:  cpu time    1.7791: real time    1.7816
    MIXING:  cpu time    0.2885: real time    0.2949
    --------------------------------------------
      LOOP:  cpu time   21.8881: real time   21.9367

 eigenvalue-minimisations  :    56
 total energy-change (2. order) : 0.7915864E-03  (-0.1677956E-03)
 number of electron      23.9999998 magnetization 
 augmentation part        4.0606007 magnetization 

 Broyden mixing:
  rms(total) = 0.17803E+00    rms(broyden)= 0.17803E+00
  rms(prec ) = 0.17836E+00
  weight for this iteration     100.00

 eigenvalues of (default mixing * dielectric matrix)
  average eigenvalue GAMMA=   1.3719
  2.4047  2.4047  2.0094  0.7945  0.7945  0.9523  0.8074  0.8074

 Free energy of the ion-electron system (eV)
  ---------------------------------------------------
  alpha Z        PSCENC =         0.03994862
  Ewald energy   TEWEN  =       968.41906180
  -Hartree energ DENC   =     -2194.38625330
  -exchange      EXHF   =         0.00000000
  -V(xc)+E(xc)   XCENC  =       104.05204538
  PAW double counting   =      5928.39128926    -5943.82706632
  entropy T*S    EENTRO =        -0.00000000
  eigenvalues    EBANDS =      -367.95877656
  atomic energy  EATOM  =      1469.26766065
  Solvation  Ediel_sol  =         0.00000000
  ---------------------------------------------------
  free energy    TOTEN  =       -36.00209048 eV

  energy without entropy =      -36.00209048  energy(sigma->0) =      -36.00209048


--------------------------------------------------------------------------------------------------------




--------------------------------------- Iteration      1(  14)  ---------------------------------------


    POTLOK:  cpu time   11.2836: real time   11.2992
    SETDIJ:  cpu time    0.0485: real time    0.0485
     EDDAV:  cpu time    8.6709: real time    8.6846
       DOS:  cpu time    0.0001: real time    0.0001
    CHARGE:  cpu time    1.7342: real time    1.7388
    MIXING:  cpu time    0.3199: real time    0.3203
    --------------------------------------------
      LOOP:  cpu time   22.0572: real time   22.0915

 eigenvalue-minimisations  :    56
 total energy-change (2. order) :-0.1767322E-02  (-0.1237299E-02)
 number of electron      23.9999998 magnetization 
 augmentation part        4.0550163 magnetization 

 Broyden mixing:
  rms(total) = 0.23457E-01    rms(broyden)= 0.23457E-01
  rms(prec ) = 0.23793E-01
  weight for this iteration     100.00

 eigenvalues of (default mixing * dielectric matrix)
  average eigenvalue GAMMA=   1.3652
  2.5919  2.5919  2.1226  1.0140  0.9215  0.7973  0.7973  0.7253  0.7253

 Free energy of the ion-electron system (eV)
  ---------------------------------------------------
  alpha Z        PSCENC =         0.03994862
  Ewald energy   TEWEN  =       968.41906180
  -Hartree energ DENC   =     -2194.34340152
  -exchange      EXHF   =         0.00000000
  -V(xc)+E(xc)   XCENC  =       104.03734626
  PAW double counting   =      6043.57238036    -6058.91609351
  entropy T*S    EENTRO =        -0.00000000
  eigenvalues    EBANDS =      -368.08076045
  atomic energy  EATOM  =      1469.26766065
  Solvation  Ediel_sol  =         0.00000000
  ---------------------------------------------------
  free energy    TOTEN  =       -36.00385780 eV

  energy without entropy =      -36.00385780  energy(sigma->0) =      -36.00385780


--------------------------------------------------------------------------------------------------------




--------------------------------------- Iteration      1(  15)  ---------------------------------------


    POTLOK:  cpu time   11.2909: real time   11.3129
    SETDIJ:  cpu time    0.0516: real time    0.0516
     EDDAV:  cpu time    7.6568: real time    7.6704
       DOS:  cpu time    0.0007: real time    0.0007
    CHARGE:  cpu time    1.7966: real time    1.7989
    MIXING:  cpu time    0.3093: real time    0.3098
    --------------------------------------------
      LOOP:  cpu time   21.1059: real time   21.1442

 eigenvalue-minimisations  :    48
 total energy-change (2. order) :-0.1957985E-02  (-0.6553451E-04)
 number of electron      23.9999998 magnetization 
 augmentation part        4.0541275 magnetization 

 Broyden mixing:
  rms(total) = 0.54051E-02    rms(broyden)= 0.54051E-02
  rms(prec ) = 0.62077E-02
  weight for this iteration     100.00

 eigenvalues of (default mixing * dielectric matrix)
  average eigenvalue GAMMA=   1.3872
  3.3234  2.4477  1.8950  1.3479  1.0272  0.8518  0.7881  0.7881  0.7013  0.7013

 Free energy of the ion-electron system (eV)
  ---------------------------------------------------
  alpha Z        PSCENC =         0.03994862
  Ewald energy   TEWEN  =       968.41906180
  -Hartree energ DENC   =     -2194.43083778
  -exchange      EXHF   =         0.00000000
  -V(xc)+E(xc)   XCENC  =       104.03710173
  PAW double counting   =      6055.35196341    -6070.68302170
  entropy T*S    EENTRO =        -0.00000000
  eigenvalues    EBANDS =      -368.00769250
  atomic energy  EATOM  =      1469.26766065
  Solvation  Ediel_sol  =         0.00000000
  ---------------------------------------------------
  free energy    TOTEN  =       -36.00581578 eV

  energy without entropy =      -36.00581578  energy(sigma->0) =      -36.00581578


--------------------------------------------------------------------------------------------------------




--------------------------------------- Iteration      1(  16)  ---------------------------------------


    POTLOK:  cpu time   11.2784: real time   11.2983
    SETDIJ:  cpu time    0.0466: real time    0.0466
     EDDAV:  cpu time    8.5738: real time    8.5962
       DOS:  cpu time    0.0001: real time    0.0001
    CHARGE:  cpu time    1.7562: real time    1.7587
    MIXING:  cpu time    0.3396: real time    0.3401
    --------------------------------------------
      LOOP:  cpu time   21.9948: real time   22.0399

 eigenvalue-minimisations  :    56
 total energy-change (2. order) :-0.2273349E-02  (-0.3979255E-04)
 number of electron      23.9999998 magnetization 
 augmentation part        4.0532745 magnetization 

 Broyden mixing:
  rms(total) = 0.16669E-01    rms(broyden)= 0.16669E-01
  rms(prec ) = 0.16831E-01
  weight for this iteration     100.00

 eigenvalues of (default mixing * dielectric matrix)
  average eigenvalue GAMMA=   1.5695
  4.7539  2.2488  2.2488  2.1347  1.1189  0.8772  0.8772  0.7843  0.7843  0.7182
  0.7182

 Free energy of the ion-electron system (eV)
  ---------------------------------------------------
  alpha Z        PSCENC =         0.03994862
  Ewald energy   TEWEN  =       968.41906180
  -Hartree energ DENC   =     -2194.46215247
  -exchange      EXHF   =         0.00000000
  -V(xc)+E(xc)   XCENC  =       104.03392030
  PAW double counting   =      6066.87987076    -6082.19919576
  entropy T*S    EENTRO =        -0.00000000
  eigenvalues    EBANDS =      -367.98720303
  atomic energy  EATOM  =      1469.26766065
  Solvation  Ediel_sol  =         0.00000000
  ---------------------------------------------------
  free energy    TOTEN  =       -36.00808913 eV

  energy without entropy =      -36.00808913  energy(sigma->0) =      -36.00808913


--------------------------------------------------------------------------------------------------------




--------------------------------------- Iteration      1(  17)  ---------------------------------------


    POTLOK:  cpu time   11.2663: real time   11.2819
    SETDIJ:  cpu time    0.0476: real time    0.0476
     EDDAV:  cpu time    7.6485: real time    7.6593
       DOS:  cpu time    0.0010: real time    0.0010
    CHARGE:  cpu time    1.7871: real time    1.7894
    MIXING:  cpu time    0.3330: real time    0.3334
    --------------------------------------------
      LOOP:  cpu time   21.0835: real time   21.1127

 eigenvalue-minimisations  :    48
 total energy-change (2. order) :-0.3068826E-02  (-0.4829011E-04)
 number of electron      23.9999998 magnetization 
 augmentation part        4.0531386 magnetization 

 Broyden mixing:
  rms(total) = 0.16827E-01    rms(broyden)= 0.16827E-01
  rms(prec ) = 0.16885E-01
  weight for this iteration     100.00

 eigenvalues of (default mixing * dielectric matrix)
  average eigenvalue GAMMA=   1.6210
  5.6651  2.4296  2.4296  2.2043  1.1666  0.9071  0.9071  0.7973  0.7758  0.7758
  0.6969  0.6969

 Free energy of the ion-electron system (eV)
  ---------------------------------------------------
  alpha Z        PSCENC =         0.03994862
  Ewald energy   TEWEN  =       968.41906180
  -Hartree energ DENC   =     -2194.55528553
  -exchange      EXHF   =         0.00000000
  -V(xc)+E(xc)   XCENC  =       104.03176352
  PAW double counting   =      6065.37326949    -6080.68810018
  entropy T*S    EENTRO =        -0.00000000
  eigenvalues    EBANDS =      -367.89947631
  atomic energy  EATOM  =      1469.26766065
  Solvation  Ediel_sol  =         0.00000000
  ---------------------------------------------------
  free energy    TOTEN  =       -36.01115796 eV

  energy without entropy =      -36.01115796  energy(sigma->0) =      -36.01115796


--------------------------------------------------------------------------------------------------------




--------------------------------------- Iteration      1(  18)  ---------------------------------------


    POTLOK:  cpu time   11.3048: real time   11.3202
    SETDIJ:  cpu time    0.0464: real time    0.0464
     EDDAV:  cpu time    7.6643: real time    7.6751
       DOS:  cpu time    0.0006: real time    0.0006
    CHARGE:  cpu time    1.7815: real time    1.7839
    MIXING:  cpu time    0.3592: real time    0.3597
    --------------------------------------------
      LOOP:  cpu time   21.1569: real time   21.1859

 eigenvalue-minimisations  :    48
 total energy-change (2. order) :-0.9310558E-03  (-0.6571696E-05)
 number of electron      23.9999998 magnetization 
 augmentation part        4.0533026 magnetization 

 Broyden mixing:
  rms(total) = 0.10884E-01    rms(broyden)= 0.10884E-01
  rms(prec ) = 0.10927E-01
  weight for this iteration     100.00

 eigenvalues of (default mixing * dielectric matrix)
  average eigenvalue GAMMA=   1.6377
  5.7883  2.4879  2.4879  2.4515  1.2647  1.2647  0.7861  0.7861  0.7072  0.7072
  0.9141  0.8703  0.7741

 Free energy of the ion-electron system (eV)
  ---------------------------------------------------
  alpha Z        PSCENC =         0.03994862
  Ewald energy   TEWEN  =       968.41906180
  -Hartree energ DENC   =     -2194.58150988
  -exchange      EXHF   =         0.00000000
  -V(xc)+E(xc)   XCENC  =       104.03126379
  PAW double counting   =      6060.30521344    -6075.62280124
  entropy T*S    EENTRO =        -0.00000000
  eigenvalues    EBANDS =      -367.87092619
  atomic energy  EATOM  =      1469.26766065
  Solvation  Ediel_sol  =         0.00000000
  ---------------------------------------------------
  free energy    TOTEN  =       -36.01208901 eV

  energy without entropy =      -36.01208901  energy(sigma->0) =      -36.01208901


--------------------------------------------------------------------------------------------------------




--------------------------------------- Iteration      1(  19)  ---------------------------------------


    POTLOK:  cpu time   11.2921: real time   11.3074
    SETDIJ:  cpu time    0.0474: real time    0.0475
     EDDAV:  cpu time    8.5500: real time    8.5622
       DOS:  cpu time    0.0008: real time    0.0008
    CHARGE:  cpu time    1.7375: real time    1.7399
    MIXING:  cpu time    0.3617: real time    0.3622
    --------------------------------------------
      LOOP:  cpu time   21.9894: real time   22.0199

 eigenvalue-minimisations  :    56
 total energy-change (2. order) :-0.5873068E-03  (-0.3192698E-05)
 number of electron      23.9999998 magnetization 
 augmentation part        4.0534086 magnetization 

 Broyden mixing:
  rms(total) = 0.55928E-02    rms(broyden)= 0.55928E-02
  rms(prec ) = 0.56267E-02
  weight for this iteration     100.00

 eigenvalues of (default mixing * dielectric matrix)
  average eigenvalue GAMMA=   1.6949
  6.3602  2.7550  2.7550  2.4489  1.4676  1.4676  1.0053  0.7852  0.7852  0.7031
  0.7031  0.8524  0.8524  0.7881

 Free energy of the ion-electron system (eV)
  ---------------------------------------------------
  alpha Z        PSCENC =         0.03994862
  Ewald energy   TEWEN  =       968.41906180
  -Hartree energ DENC   =     -2194.59921237
  -exchange      EXHF   =         0.00000000
  -V(xc)+E(xc)   XCENC  =       104.03144441
  PAW double counting   =      6056.67904570    -6071.99995045
  entropy T*S    EENTRO =        -0.00000000
  eigenvalues    EBANDS =      -367.85067468
  atomic energy  EATOM  =      1469.26766065
  Solvation  Ediel_sol  =         0.00000000
  ---------------------------------------------------
  free energy    TOTEN  =       -36.01267632 eV

  energy without entropy =      -36.01267632  energy(sigma->0) =      -36.01267632


--------------------------------------------------------------------------------------------------------




--------------------------------------- Iteration      1(  20)  ---------------------------------------


    POTLOK:  cpu time   11.2887: real time   11.3038
    SETDIJ:  cpu time    0.0473: real time    0.0473
     EDDAV:  cpu time    8.5384: real time    8.5516
       DOS:  cpu time    0.0001: real time    0.0001
    CHARGE:  cpu time    1.7600: real time    1.7626
    MIXING:  cpu time    0.3821: real time    0.3826
    --------------------------------------------
      LOOP:  cpu time   22.0166: real time   22.0480

 eigenvalue-minimisations  :    56
 total energy-change (2. order) :-0.6316661E-03  (-0.4551920E-05)
 number of electron      23.9999998 magnetization 
 augmentation part        4.0536127 magnetization 

 Broyden mixing:
  rms(total) = 0.81311E-03    rms(broyden)= 0.81311E-03
  rms(prec ) = 0.86007E-03
  weight for this iteration     100.00

 eigenvalues of (default mixing * dielectric matrix)
  average eigenvalue GAMMA=   1.8208
  8.1099  3.6653  2.3395  2.3395  2.0261  1.3126  0.7843  0.7843  0.7081  0.7081
  1.0542  0.9056  0.9056  0.9014  0.7671

 Free energy of the ion-electron system (eV)
  ---------------------------------------------------
  alpha Z        PSCENC =         0.03994862
  Ewald energy   TEWEN  =       968.41906180
  -Hartree energ DENC   =     -2194.61437402
  -exchange      EXHF   =         0.00000000
  -V(xc)+E(xc)   XCENC  =       104.03143431
  PAW double counting   =      6052.68283040    -6068.00761628
  entropy T*S    EENTRO =        -0.00000000
  eigenvalues    EBANDS =      -367.83225346
  atomic energy  EATOM  =      1469.26766065
  Solvation  Ediel_sol  =         0.00000000
  ---------------------------------------------------
  free energy    TOTEN  =       -36.01330799 eV

  energy without entropy =      -36.01330799  energy(sigma->0) =      -36.01330799


--------------------------------------------------------------------------------------------------------




--------------------------------------- Iteration      1(  21)  ---------------------------------------


    POTLOK:  cpu time   11.2958: real time   11.3112
    SETDIJ:  cpu time    0.0444: real time    0.0445
     EDDAV:  cpu time    7.5831: real time    7.5938
       DOS:  cpu time    0.0030: real time    0.0030
    CHARGE:  cpu time    1.7616: real time    1.7640
    MIXING:  cpu time    0.4054: real time    0.4060
    --------------------------------------------
      LOOP:  cpu time   21.0934: real time   21.1224

 eigenvalue-minimisations  :    48
 total energy-change (2. order) :-0.2682287E-03  (-0.1232987E-05)
 number of electron      23.9999998 magnetization 
 augmentation part        4.0536675 magnetization 

 Broyden mixing:
  rms(total) = 0.23079E-02    rms(broyden)= 0.23079E-02
  rms(prec ) = 0.23168E-02
  weight for this iteration     100.00

 eigenvalues of (default mixing * dielectric matrix)
  average eigenvalue GAMMA=   1.8384
  8.2158  4.0264  2.3699  2.3699  2.3476  1.4053  1.4053  1.0143  0.7836  0.7836
  0.8967  0.8967  0.7054  0.7054  0.8000  0.6894

 Free energy of the ion-electron system (eV)
  ---------------------------------------------------
  alpha Z        PSCENC =         0.03994862
  Ewald energy   TEWEN  =       968.41906180
  -Hartree energ DENC   =     -2194.61632951
  -exchange      EXHF   =         0.00000000
  -V(xc)+E(xc)   XCENC  =       104.03118329
  PAW double counting   =      6051.49880353    -6066.82482219
  entropy T*S    EENTRO =        -0.00000000
  eigenvalues    EBANDS =      -367.82908239
  atomic energy  EATOM  =      1469.26766065
  Solvation  Ediel_sol  =         0.00000000
  ---------------------------------------------------
  free energy    TOTEN  =       -36.01357622 eV

  energy without entropy =      -36.01357622  energy(sigma->0) =      -36.01357622


--------------------------------------------------------------------------------------------------------




--------------------------------------- Iteration      1(  22)  ---------------------------------------


    POTLOK:  cpu time   11.2686: real time   11.2924
    SETDIJ:  cpu time    0.0436: real time    0.0436
     EDDAV:  cpu time    7.6413: real time    7.6521
       DOS:  cpu time    0.0001: real time    0.0001
    CHARGE:  cpu time    1.7701: real time    1.7725
    MIXING:  cpu time    0.4251: real time    0.4256
    --------------------------------------------
      LOOP:  cpu time   21.1488: real time   21.1864

 eigenvalue-minimisations  :    48
 total energy-change (2. order) :-0.1669368E-03  (-0.3176529E-06)
 number of electron      23.9999998 magnetization 
 augmentation part        4.0536589 magnetization 

 Broyden mixing:
  rms(total) = 0.19245E-02    rms(broyden)= 0.19245E-02
  rms(prec ) = 0.19304E-02
  weight for this iteration     100.00

 eigenvalues of (default mixing * dielectric matrix)
  average eigenvalue GAMMA=   1.8867
  8.4390  4.6759  2.7117  2.4704  2.4704  1.5539  1.5539  1.0875  0.7836  0.7836
  0.7064  0.7064  0.8903  0.8903  0.8531  0.8531  0.6451

 Free energy of the ion-electron system (eV)
  ---------------------------------------------------
  alpha Z        PSCENC =         0.03994862
  Ewald energy   TEWEN  =       968.41906180
  -Hartree energ DENC   =     -2194.60790106
  -exchange      EXHF   =         0.00000000
  -V(xc)+E(xc)   XCENC  =       104.03080247
  PAW double counting   =      6051.66437441    -6066.99062116
  entropy T*S    EENTRO =        -0.00000000
  eigenvalues    EBANDS =      -367.83706887
  atomic energy  EATOM  =      1469.26766065
  Solvation  Ediel_sol  =         0.00000000
  ---------------------------------------------------
  free energy    TOTEN  =       -36.01374315 eV

  energy without entropy =      -36.01374315  energy(sigma->0) =      -36.01374315


--------------------------------------------------------------------------------------------------------




--------------------------------------- Iteration      1(  23)  ---------------------------------------


    POTLOK:  cpu time   11.2669: real time   11.2818
    SETDIJ:  cpu time    0.0483: real time    0.0483
     EDDAV:  cpu time    7.5993: real time    7.6148
       DOS:  cpu time    0.0017: real time    0.0017
    CHARGE:  cpu time    1.7625: real time    1.7649
    MIXING:  cpu time    0.4149: real time    0.4156
    --------------------------------------------
      LOOP:  cpu time   21.0936: real time   21.1271

 eigenvalue-minimisations  :    48
 total energy-change (2. order) :-0.9713198E-04  (-0.2161576E-06)
 number of electron      23.9999998 magnetization 
 augmentation part        4.0536233 magnetization 

 Broyden mixing:
  rms(total) = 0.67077E-03    rms(broyden)= 0.67077E-03
  rms(prec ) = 0.67437E-03
  weight for this iteration     100.00

 eigenvalues of (default mixing * dielectric matrix)
  average eigenvalue GAMMA=   1.8999
  8.6894  4.8954  3.1039  2.4296  2.4296  1.6831  1.6831  0.7840  0.7840  0.7054
  0.7054  1.0452  1.0452  0.9543  0.9543  0.8394  0.8394  0.6271

 Free energy of the ion-electron system (eV)
  ---------------------------------------------------
  alpha Z        PSCENC =         0.03994862
  Ewald energy   TEWEN  =       968.41906180
  -Hartree energ DENC   =     -2194.59868127
  -exchange      EXHF   =         0.00000000
  -V(xc)+E(xc)   XCENC  =       104.03037640
  PAW double counting   =      6052.72443622    -6068.04999506
  entropy T*S    EENTRO =        -0.00000000
  eigenvalues    EBANDS =      -367.84664763
  atomic energy  EATOM  =      1469.26766065
  Solvation  Ediel_sol  =         0.00000000
  ---------------------------------------------------
  free energy    TOTEN  =       -36.01384029 eV

  energy without entropy =      -36.01384029  energy(sigma->0) =      -36.01384029


--------------------------------------------------------------------------------------------------------




--------------------------------------- Iteration      1(  24)  ---------------------------------------


    POTLOK:  cpu time   11.2659: real time   11.2810
    SETDIJ:  cpu time    0.0445: real time    0.0445
     EDDAV:  cpu time    7.6158: real time    7.6274
       DOS:  cpu time    0.0001: real time    0.0001
    CHARGE:  cpu time    1.8014: real time    1.8083
    MIXING:  cpu time    0.4452: real time    0.4458
    --------------------------------------------
      LOOP:  cpu time   21.1729: real time   21.2072

 eigenvalue-minimisations  :    48
 total energy-change (2. order) :-0.4459882E-04  (-0.5133949E-07)
 number of electron      23.9999998 magnetization 
 augmentation part        4.0536002 magnetization 

 Broyden mixing:
  rms(total) = 0.18626E-03    rms(broyden)= 0.18626E-03
  rms(prec ) = 0.18942E-03
  weight for this iteration     100.00

 eigenvalues of (default mixing * dielectric matrix)
  average eigenvalue GAMMA=   1.9417
  9.1161  5.2882  3.4662  2.4518  2.4518  1.7776  1.7776  1.2764  1.2764  0.7839
  0.7839  0.7065  0.7065  0.8958  0.8958  0.9367  0.8702  0.7900  0.6415

 Free energy of the ion-electron system (eV)
  ---------------------------------------------------
  alpha Z        PSCENC =         0.03994862
  Ewald energy   TEWEN  =       968.41906180
  -Hartree energ DENC   =     -2194.59566392
  -exchange      EXHF   =         0.00000000
  -V(xc)+E(xc)   XCENC  =       104.03021742
  PAW double counting   =      6053.11636981    -6068.44146544
  entropy T*S    EENTRO =        -0.00000000
  eigenvalues    EBANDS =      -367.85001382
  atomic energy  EATOM  =      1469.26766065
  Solvation  Ediel_sol  =         0.00000000
  ---------------------------------------------------
  free energy    TOTEN  =       -36.01388488 eV

  energy without entropy =      -36.01388488  energy(sigma->0) =      -36.01388488


--------------------------------------------------------------------------------------------------------




--------------------------------------- Iteration      1(  25)  ---------------------------------------


    POTLOK:  cpu time   11.2625: real time   11.2791
    SETDIJ:  cpu time    0.0430: real time    0.0430
     EDDAV:  cpu time    5.7770: real time    5.7851
       DOS:  cpu time    0.0001: real time    0.0001
    CHARGE:  cpu time    1.7386: real time    1.7409
    MIXING:  cpu time    0.5046: real time    0.5053
    --------------------------------------------
      LOOP:  cpu time   19.3258: real time   19.3536

 eigenvalue-minimisations  :    32
 total energy-change (2. order) :-0.2358482E-04  (-0.1029993E-07)
 number of electron      23.9999998 magnetization 
 augmentation part        4.0535943 magnetization 

 Broyden mixing:
  rms(total) = 0.15706E-03    rms(broyden)= 0.15706E-03
  rms(prec ) = 0.15855E-03
  weight for this iteration     100.00

 eigenvalues of (default mixing * dielectric matrix)
  average eigenvalue GAMMA=   1.9396
  9.2342  5.6240  3.3406  2.9844  2.2808  1.9309  1.5154  1.5154  1.3604  0.7838
  0.7838  0.7058  0.7058  0.9532  0.9532  1.0054  0.8660  0.8660  0.7324  0.6495

 Free energy of the ion-electron system (eV)
  ---------------------------------------------------
  alpha Z        PSCENC =         0.03994862
  Ewald energy   TEWEN  =       968.41906180
  -Hartree energ DENC   =     -2194.59484950
  -exchange      EXHF   =         0.00000000
  -V(xc)+E(xc)   XCENC  =       104.03016514
  PAW double counting   =      6053.22264366    -6068.54752505
  entropy T*S    EENTRO =        -0.00000000
  eigenvalues    EBANDS =      -367.85101379
  atomic energy  EATOM  =      1469.26766065
  Solvation  Ediel_sol  =         0.00000000
  ---------------------------------------------------
  free energy    TOTEN  =       -36.01390847 eV

  energy without entropy =      -36.01390847  energy(sigma->0) =      -36.01390847


--------------------------------------------------------------------------------------------------------




--------------------------------------- Iteration      1(  26)  ---------------------------------------


    POTLOK:  cpu time   11.2468: real time   11.2624
    SETDIJ:  cpu time    0.0480: real time    0.0480
     EDDAV:  cpu time    6.6853: real time    6.6947
       DOS:  cpu time    0.0001: real time    0.0001
    CHARGE:  cpu time    1.7444: real time    1.7468
    MIXING:  cpu time    0.5057: real time    0.5064
    --------------------------------------------
      LOOP:  cpu time   20.2303: real time   20.2585

 eigenvalue-minimisations  :    40
 total energy-change (2. order) :-0.1202151E-04  (-0.4561899E-08)
 number of electron      23.9999998 magnetization 
 augmentation part        4.0535913 magnetization 

 Broyden mixing:
  rms(total) = 0.66566E-04    rms(broyden)= 0.66566E-04
  rms(prec ) = 0.68125E-04
  weight for this iteration     100.00

 eigenvalues of (default mixing * dielectric matrix)
  average eigenvalue GAMMA=   1.9297
  9.3114  6.0615  3.4847  2.7881  2.3261  2.3261  1.6173  1.6173  1.2008  1.2008
  0.7839  0.7839  0.7059  0.7059  0.8848  0.8848  0.9277  0.9012  0.8126  0.6509
  0.5473

 Free energy of the ion-electron system (eV)
  ---------------------------------------------------
  alpha Z        PSCENC =         0.03994862
  Ewald energy   TEWEN  =       968.41906180
  -Hartree energ DENC   =     -2194.59468160
  -exchange      EXHF   =         0.00000000
  -V(xc)+E(xc)   XCENC  =       104.03015003
  PAW double counting   =      6053.02143554    -6068.34633668
  entropy T*S    EENTRO =        -0.00000000
  eigenvalues    EBANDS =      -367.85115884
  atomic energy  EATOM  =      1469.26766065
  Solvation  Ediel_sol  =         0.00000000
  ---------------------------------------------------
  free energy    TOTEN  =       -36.01392049 eV

  energy without entropy =      -36.01392049  energy(sigma->0) =      -36.01392049


--------------------------------------------------------------------------------------------------------




--------------------------------------- Iteration      1(  27)  ---------------------------------------


    POTLOK:  cpu time   11.2415: real time   11.2602
    SETDIJ:  cpu time    0.0448: real time    0.0448
     EDDAV:  cpu time    5.7873: real time    5.8065
       DOS:  cpu time    0.0008: real time    0.0008
    CHARGE:  cpu time    1.7812: real time    1.7836
    MIXING:  cpu time    0.5051: real time    0.5058
    --------------------------------------------
      LOOP:  cpu time   19.3606: real time   19.4017

 eigenvalue-minimisations  :    32
 total energy-change (2. order) :-0.5182491E-05  (-0.2490511E-08)
 number of electron      23.9999998 magnetization 
 augmentation part        4.0535947 magnetization 

 Broyden mixing:
  rms(total) = 0.77747E-04    rms(broyden)= 0.77747E-04
  rms(prec ) = 0.78689E-04
  weight for this iteration     100.00

 eigenvalues of (default mixing * dielectric matrix)
  average eigenvalue GAMMA=   1.9576
  9.4958  6.2327  4.0283  2.9254  2.3881  2.3881  1.8299  1.8299  1.2150  1.2150
  0.7839  0.7839  0.7061  0.7061  0.8804  0.8804  0.8873  0.8873  0.9076  0.8659
  0.6554  0.5751

 Free energy of the ion-electron system (eV)
  ---------------------------------------------------
  alpha Z        PSCENC =         0.03994862
  Ewald energy   TEWEN  =       968.41906180
  -Hartree energ DENC   =     -2194.59425981
  -exchange      EXHF   =         0.00000000
  -V(xc)+E(xc)   XCENC  =       104.03012958
  PAW double counting   =      6053.11887050    -6068.44372108
  entropy T*S    EENTRO =        -0.00000000
  eigenvalues    EBANDS =      -367.85161592
  atomic energy  EATOM  =      1469.26766065
  Solvation  Ediel_sol  =         0.00000000
  ---------------------------------------------------
  free energy    TOTEN  =       -36.01392567 eV

  energy without entropy =      -36.01392567  energy(sigma->0) =      -36.01392567


--------------------------------------------------------------------------------------------------------




--------------------------------------- Iteration      1(  28)  ---------------------------------------


    POTLOK:  cpu time   11.2188: real time   11.2372
    SETDIJ:  cpu time    0.0480: real time    0.0480
     EDDAV:  cpu time    4.8153: real time    4.8223
       DOS:  cpu time    0.0022: real time    0.0022
    CHARGE:  cpu time    1.7742: real time    1.7768
    MIXING:  cpu time    0.5346: real time    0.5354
    --------------------------------------------
      LOOP:  cpu time   18.3932: real time   18.4220

 eigenvalue-minimisations  :    24
 total energy-change (2. order) :-0.6539881E-05  (-0.3084578E-08)
 number of electron      23.9999998 magnetization 
 augmentation part        4.0535910 magnetization 

 Broyden mixing:
  rms(total) = 0.58324E-04    rms(broyden)= 0.58324E-04
  rms(prec ) = 0.58842E-04
  weight for this iteration     100.00

 eigenvalues of (default mixing * dielectric matrix)
  average eigenvalue GAMMA=   1.9564
  9.6330  6.3784  4.0638  3.1463  2.6063  2.3412  1.9206  1.5117  1.5117  1.3121
  1.0130  1.0130  0.7839  0.7839  0.7061  0.7061  1.0015  0.8621  0.8621  0.8509
  0.8509  0.6461  0.4919

 Free energy of the ion-electron system (eV)
  ---------------------------------------------------
  alpha Z        PSCENC =         0.03994862
  Ewald energy   TEWEN  =       968.41906180
  -Hartree energ DENC   =     -2194.59495316
  -exchange      EXHF   =         0.00000000
  -V(xc)+E(xc)   XCENC  =       104.03015394
  PAW double counting   =      6053.10788780    -6068.43273609
  entropy T*S    EENTRO =        -0.00000000
  eigenvalues    EBANDS =      -367.85095576
  atomic energy  EATOM  =      1469.26766065
  Solvation  Ediel_sol  =         0.00000000
  ---------------------------------------------------
  free energy    TOTEN  =       -36.01393221 eV

  energy without entropy =      -36.01393221  energy(sigma->0) =      -36.01393221


--------------------------------------------------------------------------------------------------------




--------------------------------------- Iteration      1(  29)  ---------------------------------------


    POTLOK:  cpu time   11.2271: real time   11.2447
    SETDIJ:  cpu time    0.0490: real time    0.0490
     EDDAV:  cpu time    6.7409: real time    6.7508
       DOS:  cpu time    0.0001: real time    0.0001
    CHARGE:  cpu time    1.7423: real time    1.7447
[...]
     EDDAV:  cpu time    5.7636: real time    5.7795
       DOS:  cpu time    0.0002: real time    0.0002
    CHARGE:  cpu time    1.7825: real time    1.7849
    MIXING:  cpu time    0.5758: real time    0.5767
    --------------------------------------------
      LOOP:  cpu time   19.4072: real time   19.4414

 eigenvalue-minimisations  :    32
 total energy-change (2. order) :-0.1862839E-05  (-0.1044548E-08)
 number of electron      23.9999998 magnetization 
 augmentation part        4.0535946 magnetization 

 Broyden mixing:
  rms(total) = 0.23712E-04    rms(broyden)= 0.23712E-04
  rms(prec ) = 0.23847E-04
  weight for this iteration     100.00

 eigenvalues of (default mixing * dielectric matrix)
  average eigenvalue GAMMA=   1.9794
  9.6493  7.0327  4.8934  3.3281  2.7094  2.2986  2.2986  2.1443  1.7438  0.7839
  0.7839  0.7060  0.7060  1.1389  1.1173  1.0711  0.9236  0.9236  0.9865  0.8625
  0.8625  0.6956  0.6956  0.6436  0.4856

 Free energy of the ion-electron system (eV)
  ---------------------------------------------------
  alpha Z        PSCENC =         0.03994862
  Ewald energy   TEWEN  =       968.41906180
  -Hartree energ DENC   =     -2194.59546552
  -exchange      EXHF   =         0.00000000
  -V(xc)+E(xc)   XCENC  =       104.03017246
  PAW double counting   =      6053.12829103    -6068.45318572
  entropy T*S    EENTRO =        -0.00000000
  eigenvalues    EBANDS =      -367.85042047
  atomic energy  EATOM  =      1469.26766065
  Solvation  Ediel_sol  =         0.00000000
  ---------------------------------------------------
  free energy    TOTEN  =       -36.01393715 eV

  energy without entropy =      -36.01393715  energy(sigma->0) =      -36.01393715


--------------------------------------------------------------------------------------------------------




--------------------------------------- Iteration      1(  31)  ---------------------------------------


    POTLOK:  cpu time   11.2514: real time   11.2669
    SETDIJ:  cpu time    0.0465: real time    0.0465
     EDDAV:  cpu time    6.7342: real time    6.7436
       DOS:  cpu time    0.0001: real time    0.0001
    CHARGE:  cpu time    1.7719: real time    1.7744
    MIXING:  cpu time    0.5829: real time    0.5839
    --------------------------------------------
      LOOP:  cpu time   20.3869: real time   20.4154

 eigenvalue-minimisations  :    40
 total energy-change (2. order) :-0.6593332E-06  (-0.7518715E-09)
 number of electron      23.9999998 magnetization 
 augmentation part        4.0535956 magnetization 

 Broyden mixing:
  rms(total) = 0.11947E-04    rms(broyden)= 0.11947E-04
  rms(prec ) = 0.12058E-04
  weight for this iteration     100.00

 eigenvalues of (default mixing * dielectric matrix)
  average eigenvalue GAMMA=   1.9820
  9.7153  7.0571  5.1328  3.2575  3.2575  2.2976  2.2976  2.1762  1.5582  1.5582
  1.0761  1.0761  1.1283  0.7839  0.7839  0.7061  0.7061  0.9597  0.9597  0.8449
  0.8449  0.8299  0.8299  0.6486  0.5742  0.4728

 Free energy of the ion-electron system (eV)
  ---------------------------------------------------
  alpha Z        PSCENC =         0.03994862
  Ewald energy   TEWEN  =       968.41906180
  -Hartree energ DENC   =     -2194.59557470
  -exchange      EXHF   =         0.00000000
  -V(xc)+E(xc)   XCENC  =       104.03017621
  PAW double counting   =      6053.11173985    -6068.43664662
  entropy T*S    EENTRO =        -0.00000000
  eigenvalues    EBANDS =      -367.85030361
  atomic energy  EATOM  =      1469.26766065
  Solvation  Ediel_sol  =         0.00000000
  ---------------------------------------------------
  free energy    TOTEN  =       -36.01393780 eV

  energy without entropy =      -36.01393780  energy(sigma->0) =      -36.01393780


--------------------------------------------------------------------------------------------------------




--------------------------------------- Iteration      1(  32)  ---------------------------------------


    POTLOK:  cpu time   11.2377: real time   11.2532
    SETDIJ:  cpu time    0.0496: real time    0.0496
     EDDAV:  cpu time    5.7739: real time    5.7954
       DOS:  cpu time    0.0001: real time    0.0001
    CHARGE:  cpu time    1.7788: real time    1.7814
    MIXING:  cpu time    0.6091: real time    0.6100
    --------------------------------------------
      LOOP:  cpu time   19.4492: real time   19.4897

 eigenvalue-minimisations  :    32
 total energy-change (2. order) :-0.4916174E-06  (-0.6147651E-09)
 number of electron      23.9999998 magnetization 
 augmentation part        4.0535957 magnetization 

 Broyden mixing:
  rms(total) = 0.12097E-04    rms(broyden)= 0.12097E-04
  rms(prec ) = 0.12142E-04
  weight for this iteration     100.00

 eigenvalues of (default mixing * dielectric matrix)
  average eigenvalue GAMMA=   2.0215
  9.7471  7.4608  5.4130  3.9356  2.9145  2.7235  2.4295  1.9851  1.9851  1.5871
  1.3953  1.0855  1.0855  0.7839  0.7839  0.7061  0.7061  0.9127  0.9127  0.9619
  0.8399  0.8399  0.8617  0.8617  0.6467  0.5490  0.4669

 Free energy of the ion-electron system (eV)
  ---------------------------------------------------
  alpha Z        PSCENC =         0.03994862
  Ewald energy   TEWEN  =       968.41906180
  -Hartree energ DENC   =     -2194.59554768
  -exchange      EXHF   =         0.00000000
  -V(xc)+E(xc)   XCENC  =       104.03017381
  PAW double counting   =      6053.11803885    -6068.44294896
  entropy T*S    EENTRO =        -0.00000000
  eigenvalues    EBANDS =      -367.85032537
  atomic energy  EATOM  =      1469.26766065
  Solvation  Ediel_sol  =         0.00000000
  ---------------------------------------------------
  free energy    TOTEN  =       -36.01393830 eV

  energy without entropy =      -36.01393830  energy(sigma->0) =      -36.01393830


--------------------------------------------------------------------------------------------------------




--------------------------------------- Iteration      1(  33)  ---------------------------------------


    POTLOK:  cpu time   11.2501: real time   11.2653
    SETDIJ:  cpu time    0.0462: real time    0.0462
     EDDAV:  cpu time    5.7338: real time    5.7420
       DOS:  cpu time    0.0003: real time    0.0003
    CHARGE:  cpu time    1.7582: real time    1.7606
    MIXING:  cpu time    0.6427: real time    0.6436
    --------------------------------------------
      LOOP:  cpu time   19.4312: real time   19.4580

 eigenvalue-minimisations  :    32
 total energy-change (2. order) :-0.2883430E-06  (-0.5381775E-09)
 number of electron      23.9999998 magnetization 
 augmentation part        4.0535960 magnetization 

 Broyden mixing:
  rms(total) = 0.60348E-05    rms(broyden)= 0.60348E-05
  rms(prec ) = 0.60801E-05
  weight for this iteration     100.00

 eigenvalues of (default mixing * dielectric matrix)
  average eigenvalue GAMMA=   2.0295
  9.7396  7.6542  5.5689  4.0691  2.9933  2.9933  2.3315  2.2296  2.2296  1.5538
  1.5538  0.7839  0.7839  1.0137  1.0137  1.0504  1.0504  0.7061  0.7061  0.9981
  0.8435  0.8435  0.8760  0.7915  0.7915  0.6485  0.5433  0.4643

 Free energy of the ion-electron system (eV)
  ---------------------------------------------------
  alpha Z        PSCENC =         0.03994862
  Ewald energy   TEWEN  =       968.41906180
  -Hartree energ DENC   =     -2194.59558357
  -exchange      EXHF   =         0.00000000
  -V(xc)+E(xc)   XCENC  =       104.03017495
  PAW double counting   =      6053.10631331    -6068.43123097
  entropy T*S    EENTRO =        -0.00000000
  eigenvalues    EBANDS =      -367.85028336
  atomic energy  EATOM  =      1469.26766065
  Solvation  Ediel_sol  =         0.00000000
  ---------------------------------------------------
  free energy    TOTEN  =       -36.01393858 eV

  energy without entropy =      -36.01393858  energy(sigma->0) =      -36.01393858


--------------------------------------------------------------------------------------------------------




--------------------------------------- Iteration      1(  34)  ---------------------------------------


    POTLOK:  cpu time   11.2271: real time   11.2469
    SETDIJ:  cpu time    0.0459: real time    0.0460
     EDDAV:  cpu time    6.7778: real time    6.7970
       DOS:  cpu time    0.0003: real time    0.0003
    CHARGE:  cpu time    1.7459: real time    1.7485
    MIXING:  cpu time    0.6812: real time    0.6826
    --------------------------------------------
      LOOP:  cpu time   20.4782: real time   20.5211

 eigenvalue-minimisations  :    40
 total energy-change (2. order) :-0.1728981E-06  (-0.4647660E-09)
 number of electron      23.9999998 magnetization 
 augmentation part        4.0535960 magnetization 

 Broyden mixing:
  rms(total) = 0.34744E-05    rms(broyden)= 0.34744E-05
  rms(prec ) = 0.35028E-05
  weight for this iteration     100.00

 eigenvalues of (default mixing * dielectric matrix)
  average eigenvalue GAMMA=   2.0008
  9.7536  7.7061  5.6957  4.2092  3.2330  2.8144  2.2825  2.2825  2.1697  1.5999
  1.5654  1.0470  1.0470  1.0604  1.0604  0.7839  0.7839  0.7061  0.7061  0.9717
  0.8404  0.8404  0.8454  0.8454  0.7618  0.7618  0.6460  0.5384  0.4640

 Free energy of the ion-electron system (eV)
  ---------------------------------------------------
  alpha Z        PSCENC =         0.03994862
  Ewald energy   TEWEN  =       968.41906180
  -Hartree energ DENC   =     -2194.59555515
  -exchange      EXHF   =         0.00000000
  -V(xc)+E(xc)   XCENC  =       104.03017327
  PAW double counting   =      6053.10616436    -6068.43107968
  entropy T*S    EENTRO =        -0.00000000
  eigenvalues    EBANDS =      -367.85031262
  atomic energy  EATOM  =      1469.26766065
  Solvation  Ediel_sol  =         0.00000000
  ---------------------------------------------------
  free energy    TOTEN  =       -36.01393876 eV

  energy without entropy =      -36.01393876  energy(sigma->0) =      -36.01393876


--------------------------------------------------------------------------------------------------------




--------------------------------------- Iteration      1(  35)  ---------------------------------------


    POTLOK:  cpu time   11.2207: real time   11.2364
    SETDIJ:  cpu time    0.0480: real time    0.0481
     EDDAV:  cpu time    6.7031: real time    6.7125
       DOS:  cpu time    0.0009: real time    0.0009
    --------------------------------------------
      LOOP:  cpu time   17.9728: real time   17.9979

 eigenvalue-minimisations  :    40
 total energy-change (2. order) :-0.6786013E-07  (-0.4235972E-09)
 number of electron      23.9999998 magnetization 
 augmentation part        4.0535960 magnetization 

 Free energy of the ion-electron system (eV)
  ---------------------------------------------------
  alpha Z        PSCENC =         0.03994862
  Ewald energy   TEWEN  =       968.41906180
  -Hartree energ DENC   =     -2194.59554204
  -exchange      EXHF   =         0.00000000
  -V(xc)+E(xc)   XCENC  =       104.03017266
  PAW double counting   =      6053.10647784    -6068.43139196
  entropy T*S    EENTRO =        -0.00000000
  eigenvalues    EBANDS =      -367.85032639
  atomic energy  EATOM  =      1469.26766065
  Solvation  Ediel_sol  =         0.00000000
  ---------------------------------------------------
  free energy    TOTEN  =       -36.01393883 eV

  energy without entropy =      -36.01393883  energy(sigma->0) =      -36.01393883


--------------------------------------------------------------------------------------------------------




 average (electrostatic) potential at core
  the test charge radii are     0.6256  0.8471  0.8742
  (the norm of the test charge is              1.0000)
       1 -41.3786       2 -41.3583       3 -89.1385       4 -93.0546       5 -93.0314
       6 -90.6638
 
 
 
 E-fermi :  -7.0767     XC(G=0):  -0.0386     alpha+bet : -0.0095


 k-point     1 :       0.0000    0.0000    0.0000
  band No.  band energies     occupation 
      1     -29.6440      2.00000
      2     -28.5842      2.00000
      3     -25.4411      2.00000
      4     -13.8632      2.00000
      5     -13.0965      2.00000
      6     -12.9316      2.00000
      7     -12.9314      2.00000
      8     -12.5353      2.00000
      9      -9.2748      2.00000
     10      -9.2746      2.00000
     11      -9.1650      2.00000
     12      -7.1835      2.00000
     13      -1.2444      0.00000
     14      -0.8469      0.00000
     15      -0.8403      0.00000
     16      -0.8316      0.00000


--------------------------------------------------------------------------------------------------------


 soft charge-density along one line, spin component            1
         0         1         2         3         4         5         6         7         8         9
 total charge-density along one line
 
 pseudopotential strength for first ion, spin component:            1
 -2.340  -3.715   0.007  -0.024   0.001
 -3.715  -5.729   0.014  -0.047   0.002
  0.007   0.014  -0.124  -0.008   0.000
 -0.024  -0.047  -0.008  -0.097  -0.001
  0.001   0.002   0.000  -0.001  -0.129
 total augmentation occupancy for first ion, spin component:            1
  2.827  -0.512  -0.260   1.014  -0.039
 -0.512   0.212   0.018  -0.122   0.005
 -0.260   0.018   0.090  -0.088   0.003
  1.014  -0.122  -0.088   0.402  -0.011
 -0.039   0.005   0.003  -0.011   0.103


------------------------ aborting loop because EDIFF is reached ----------------------------------------



 DIPCOR: dipole corrections for dipol
 direction  1 min pos   352, direction  2 min pos   402, direction  3 min pos   384,
 dipolmoment          -0.011640      0.256212      0.306403 electrons x Angstroem
 Tr[quadrupol]        14.160747

 energy correction for charged system         0.000000 eV
 dipol+quadrupol energy correction            0.000112 eV
 added-field ion interaction          0.000000 eV  (added to PSCEN)

 
  *************** adding dipol energy to TOTEN NOW **************** 
    CHARGE:  cpu time    1.7562: real time    1.7586
    FORLOC:  cpu time    0.5452: real time    0.5458
    FORNL :  cpu time    0.1694: real time    0.1697
    STRESS:  cpu time    2.8377: real time    2.8420
    FORHAR:  cpu time    3.3325: real time    3.3368
    MIXING:  cpu time    0.6813: real time    0.6823
    OFIELD:  cpu time    0.0000: real time    0.0000

  FORCE on cell =-STRESS in cart. coord.  units (eV):
  Direction    XX          YY          ZZ          XY          YZ          ZX
  --------------------------------------------------------------------------------------
  Alpha Z     0.03995     0.03995     0.03995
  Ewald    -113.72667  1107.22081   -25.07493     1.16395   -30.62556    -3.37132
  Hartree   492.06944  1194.90789   507.61819     0.28404    -7.47356    -0.59058
  E(xc)    -110.72005  -108.14091  -110.35667     0.00346    -0.09094    -0.01383
  Local    -883.17011 -2695.86089  -958.24718    -1.14266    30.06549     2.85347
  n-local    74.92511    58.47316    70.75949    -0.02001     0.52653     0.15854
  augment   139.19038   123.86096   133.59322    -0.05641     1.48427     0.21302
  Kinetic   401.39132   329.59044   383.28552    -0.21085     5.54788     0.68910
  Fock        0.00000     0.00000     0.00000     0.00000     0.00000     0.00000
  -------------------------------------------------------------------------------------
  Total      -0.00062    10.09141     1.61760     0.02150    -0.56589    -0.06160
  in kB      -0.00002     0.37710     0.06045     0.00080    -0.02115    -0.00230
  external pressure =        0.15 kB  Pullay stress =        0.00 kB


 VOLUME and BASIS-vectors are now :
 -----------------------------------------------------------------------------
  energy-cutoff  :     1000.00
  volume of cell :    42875.00
      direct lattice vectors                 reciprocal lattice vectors
    35.000000000  0.000000000  0.000000000     0.028571429  0.000000000  0.000000000
     0.000000000 35.000000000  0.000000000     0.000000000  0.028571429  0.000000000
     0.000000000  0.000000000 35.000000000     0.000000000  0.000000000  0.028571429

  length of vectors
    35.000000000 35.000000000 35.000000000     0.028571429  0.028571429  0.028571429


 FORCES acting on ions
    electron-ion (+dipol)            ewald-force                    non-local-force                 convergence-correction
 -----------------------------------------------------------------------------------------------
   -.327E+01 -.302E+02 0.860E+02   0.362E+01 0.329E+02 -.952E+02   -.284E+00 -.216E+01 0.746E+01   0.181E-07 0.397E-07 -.447E-06
   0.129E+00 0.804E+02 -.340E+01   -.146E+00 -.900E+02 0.385E+01   0.106E-01 0.778E+01 -.279E+00   -.400E-08 -.458E-06 0.252E-07
   0.656E-02 0.111E+02 -.173E+00   -.652E-02 -.112E+02 0.172E+00   -.203E-03 0.696E-01 0.536E-02   -.178E-06 0.169E-05 0.692E-06
   0.148E-01 -.235E+03 -.388E+00   -.174E-01 0.321E+03 0.458E+00   0.284E-02 -.827E+02 -.747E-01   -.520E-06 -.216E-04 0.985E-06
   0.527E-02 0.272E+03 -.139E+00   -.600E-02 -.359E+03 0.158E+00   0.754E-03 0.831E+02 -.198E-01   -.233E-06 0.221E-04 0.199E-05
   0.140E+01 -.639E+02 -.368E+02   -.344E+01 0.106E+03 0.906E+02   0.198E+01 -.407E+02 -.522E+02   0.860E-07 -.211E-05 -.219E-05
 -----------------------------------------------------------------------------------------------
   -.172E+01 0.345E+02 0.451E+02   0.000E+00 0.284E-13 0.000E+00   0.172E+01 -.345E+02 -.451E+02   -.832E-06 -.332E-06 0.105E-05
 
 
 POSITION                                       TOTAL-FORCE (eV/Angst)
 -----------------------------------------------------------------------------------
      0.03541      6.75416     34.06830         0.066128      0.607505     -1.739846
      0.00000      5.55848      0.00000        -0.006403     -1.853993      0.168662
      0.00000      0.08826      0.00000        -0.000170     -0.068488      0.004454
      0.00000      1.25848      0.00000         0.000190      3.554334     -0.005023
      0.00000     33.91804      0.00000         0.000028     -3.476835     -0.000763
      0.00000      6.51985      0.00000        -0.059775      1.237476      1.572516
 -----------------------------------------------------------------------------------
    total drift:                                0.000007     -0.000370     -0.000084


--------------------------------------------------------------------------------------------------------



  FREE ENERGIE OF THE ION-ELECTRON SYSTEM (eV)
  ---------------------------------------------------
  free  energy   TOTEN  =       -36.01382652 eV

  energy  without entropy=      -36.01382652  energy(sigma->0) =      -36.01382652
 


--------------------------------------------------------------------------------------------------------


    POTLOK:  cpu time   11.2432: real time   11.2583


--------------------------------------------------------------------------------------------------------


 writing wavefunctions
     LOOP+:  cpu time  974.7245: real time  976.0494
    4ORBIT:  cpu time    0.0000: real time    0.0000

 total amount of memory used by VASP MPI-rank0  1853416. kBytes
=======================================================================

   base      :      30000. kBytes
   nonl-proj :      55413. kBytes
   fftplans  :     601440. kBytes
   grid      :    1154248. kBytes
   one-center:          1. kBytes
   wavefun   :      12314. kBytes
 
  
  
 General timing and accounting informations for this job:
 ========================================================
  
                  Total CPU time used (sec):     1282.082
                            User time (sec):     1198.878
                          System time (sec):       83.204
                         Elapsed time (sec):     1288.447
  
                   Maximum memory used (kb):     2310920.
                   Average memory used (kb):           0.
  
                          Minor page faults:     31676438
                          Major page faults:          149
                 Voluntary context switches:        28051
