 vasp.6.1.2 22Jul20 (build Jan  6 2021 09:55:43) gamma-only                      
 executed on             LinuxPGI date 2021.04.14  06:39:56
 running on   16 total cores
 distrk:  each k-point on   16 cores,    1 groups
 distr:  one band on NCORE=   8 cores,    2 groups


--------------------------------------------------------------------------------------------------------


 INCAR:
 POTCAR:    PAW_PBE C 08Apr2002                   
 POTCAR:    PAW_PBE O 08Apr2002                   
 POTCAR:    PAW_PBE C 08Apr2002                   
   VRHFIN =C: s2p2                                                                                  
   LEXCH  = PE                                                                                      
   EATOM  =   147.1560 eV,   10.8157 Ry                                                             
                                                                                                    
   TITEL  = PAW_PBE C 08Apr2002                                                                     
   LULTRA =        F    use ultrasoft PP ?                                                          
   IUNSCR =        1    unscreen: 0-lin 1-nonlin 2-no                                               
   RPACOR =    1.200    partial core radius                                                         
   POMASS =   12.011; ZVAL   =    4.000    mass and valenz                                          
   RCORE  =    1.500    outmost cutoff radius                                                       
   RWIGS  =    1.630; RWIGS  =    0.863    wigner-seitz radius (au A)                               
   ENMAX  =  400.000; ENMIN  =  300.000 eV                                                          
   ICORE  =        2    local potential                                                             
   LCOR   =        T    correct aug charges                                                         
   LPAW   =        T    paw PP                                                                      
   EAUG   =  644.873                                                                                
   DEXC   =    0.000                                                                                
   RMAX   =    1.529    core radius for proj-oper                                                   
   RAUG   =    1.300    factor for augmentation sphere                                              
   RDEP   =    1.501    radius for radial grids                                                     
   RDEPT  =    1.300    core radius for aug-charge                                                  
                                                                                                    
   Atomic configuration                                                                             
    4 entries                                                                                       
     n  l   j            E        occ.                                                              
     1  0  0.50      -273.3789   2.0000                                                             
     2  0  0.50       -13.7508   2.0000                                                             
     2  1  0.50        -5.2854   2.0000                                                             
     3  2  1.50        -5.4423   0.0000                                                             
   Description                                                                                      
     l       E           TYP  RCUT    TYP  RCUT                                                     
     0    -13.7508458     23  1.200                                                                 
     0     -8.2022199     23  1.200                                                                 
     1     -5.2854383     23  1.500                                                                 
     1     34.0145650     23  1.500                                                                 
     2     -5.4423304      7  1.500                                                                 
  local pseudopotential read in
  partial core-charges read in
  partial kinetic energy density read in
  atomic valenz-charges read in
  non local Contribution for L=            0  read in
    real space projection operators read in
  non local Contribution for L=            0  read in
    real space projection operators read in
  non local Contribution for L=            1  read in
    real space projection operators read in
  non local Contribution for L=            1  read in
    real space projection operators read in
    PAW grid and wavefunctions read in
 
   number of l-projection  operators is LMAX  =            4
   number of lm-projection operators is LMMAX =            8
 
 POTCAR:    PAW_PBE O 08Apr2002                   
   VRHFIN =O: s2p4                                                                                  
   LEXCH  = PE                                                                                      
   EATOM  =   432.3788 eV,   31.7789 Ry                                                             
                                                                                                    
   TITEL  = PAW_PBE O 08Apr2002                                                                     
   LULTRA =        F    use ultrasoft PP ?                                                          
   IUNSCR =        1    unscreen: 0-lin 1-nonlin 2-no                                               
   RPACOR =    1.200    partial core radius                                                         
   POMASS =   16.000; ZVAL   =    6.000    mass and valenz                                          
   RCORE  =    1.520    outmost cutoff radius                                                       
   RWIGS  =    1.550; RWIGS  =    0.820    wigner-seitz radius (au A)                               
   ENMAX  =  400.000; ENMIN  =  300.000 eV                                                          
   ICORE  =        2    local potential                                                             
   LCOR   =        T    correct aug charges                                                         
   LPAW   =        T    paw PP                                                                      
   EAUG   =  605.392                                                                                
   DEXC   =    0.000                                                                                
   RMAX   =    1.553    core radius for proj-oper                                                   
   RAUG   =    1.300    factor for augmentation sphere                                              
   RDEP   =    1.550    radius for radial grids                                                     
   RDEPT  =    1.329    core radius for aug-charge                                                  
                                                                                                    
   Atomic configuration                                                                             
    4 entries                                                                                       
     n  l   j            E        occ.                                                              
     1  0  0.50      -514.6923   2.0000                                                             
     2  0  0.50       -23.9615   2.0000                                                             
     2  1  0.50        -9.0305   4.0000                                                             
     3  2  1.50        -9.5241   0.0000                                                             
   Description                                                                                      
     l       E           TYP  RCUT    TYP  RCUT                                                     
     0    -23.9615318     23  1.200                                                                 
     0     -9.5240782     23  1.200                                                                 
     1     -9.0304911     23  1.520                                                                 
     1      8.1634956     23  1.520                                                                 
     2     -9.5240782      7  1.500                                                                 
  local pseudopotential read in
  partial core-charges read in
  partial kinetic energy density read in
  kinetic energy density of atom read in
  atomic valenz-charges read in
  non local Contribution for L=            0  read in
    real space projection operators read in
  non local Contribution for L=            0  read in
    real space projection operators read in
  non local Contribution for L=            1  read in
    real space projection operators read in
  non local Contribution for L=            1  read in
    real space projection operators read in
    PAW grid and wavefunctions read in
 
   number of l-projection  operators is LMAX  =            4
   number of lm-projection operators is LMMAX =            8
 
  PAW_PBE C 08Apr2002                   :
 energy of atom  1       EATOM= -147.1560
 kinetic energy error for atom=    0.0002 (will be added to EATOM!!)
  PAW_PBE O 08Apr2002                   :
 energy of atom  2       EATOM= -432.3788
 kinetic energy error for atom=    0.0005 (will be added to EATOM!!)
 
 
 POSCAR:  C  O
  positions in cartesian coordinates
  No initial velocities read in
 exchange correlation table for  LEXCH =        8
   RHO(1)=    0.500       N(1)  =     2000
   RHO(2)=  100.500       N(2)  =     4000
 


--------------------------------------------------------------------------------------------------------


 ion  position               nearest neighbor table
   1  0.000  0.002  0.000-   3 1.17   4 1.17
   2  0.000  0.183  0.000-   5 1.17   6 1.17
   3  0.000  0.035  0.000-   1 1.17
   4  0.000  0.968  0.000-   1 1.17
   5  0.000  0.149  0.000-   2 1.17
   6  0.000  0.216  0.000-   2 1.17
 
  LATTYP: Found a simple cubic cell.
 ALAT       =    35.0000000000
  
  Lattice vectors:
  
 A1 = (  35.0000000000,   0.0000000000,   0.0000000000)
 A2 = (   0.0000000000,  35.0000000000,   0.0000000000)
 A3 = (   0.0000000000,   0.0000000000,  35.0000000000)


Analysis of symmetry for initial positions (statically):
=====================================================================
 Subroutine PRICEL returns:
 Original cell was already a primitive cell.
 

 Routine SETGRP: Setting up the symmetry group for a 
 simple cubic supercell.


 Subroutine GETGRP returns: Found 16 space group operations
 (whereof  8 operations were pure point group operations)
 out of a pool of 48 trial point group operations.


The static configuration has the point symmetry C_4v.
 The point group associated with its full space group is D_4h.


Analysis of symmetry for dynamics (positions and initial velocities):
=====================================================================
 Subroutine PRICEL returns:
 Original cell was already a primitive cell.
 

 Routine SETGRP: Setting up the symmetry group for a 
 simple cubic supercell.


 Subroutine GETGRP returns: Found 16 space group operations
 (whereof  8 operations were pure point group operations)
 out of a pool of 48 trial point group operations.


The dynamic configuration has the point symmetry C_4v.
 The point group associated with its full space group is D_4h.


 Subroutine INISYM returns: Found 16 space group operations
 (whereof  8 operations are pure point group operations),
 and found     1 'primitive' translations


----------------------------------------------------------------------------------------

                                     Primitive cell                                     

  volume of cell :   42875.0000

  direct lattice vectors                    reciprocal lattice vectors
    35.000000000  0.000000000  0.000000000     0.028571429  0.000000000  0.000000000
     0.000000000 35.000000000  0.000000000     0.000000000  0.028571429  0.000000000
     0.000000000  0.000000000 35.000000000     0.000000000  0.000000000  0.028571429

  length of vectors
    35.000000000 35.000000000 35.000000000     0.028571429  0.028571429  0.028571429

  position of ions in fractional coordinates (direct lattice)
     0.000000000  0.001628171  0.000000000
     0.000000000  0.182783600  0.000000000
     0.000000000  0.035063029  0.000000000
     0.000000000  0.968193314  0.000000000
     0.000000000  0.149348743  0.000000000
     0.000000000  0.216218457  0.000000000

  ion indices of the primitive-cell ions
   primitive index   ion index
                 1           1
                 2           2
                 3           3
                 4           4
                 5           5
                 6           6

----------------------------------------------------------------------------------------

 
 
 KPOINTS: automatic mesh                          

Automatic generation of k-mesh.
Space group operators:
 irot       det(A)        alpha          n_x          n_y          n_z        tau_x        tau_y        tau_z
    1     1.000000     0.000000     1.000000     0.000000     0.000000     0.000000     0.000000     0.000000
    2     1.000000    90.000000     0.000000     1.000000     0.000000     0.000000     0.000000     0.000000
    3    -1.000000   180.000000     0.000000     0.000000     1.000000     0.000000     0.000000     0.000000
    4    -1.000000   180.000000     0.707107     0.000000     0.707107     0.000000     0.000000     0.000000
    5    -1.000000   180.000000     1.000000     0.000000     0.000000     0.000000     0.000000     0.000000
    6     1.000000    90.000000     0.000000    -1.000000     0.000000     0.000000     0.000000     0.000000
    7     1.000000   180.000000     0.000000     1.000000     0.000000     0.000000     0.000000     0.000000
    8    -1.000000   180.000000     0.707107     0.000000    -0.707107     0.000000     0.000000     0.000000
    9    -1.000000     0.000000     1.000000     0.000000     0.000000     0.000000     0.184412     0.000000
   10    -1.000000    90.000000     0.000000     1.000000     0.000000     0.000000     0.184412     0.000000
   11     1.000000   180.000000     0.000000     0.000000     1.000000     0.000000     0.184412     0.000000
   12     1.000000   180.000000     0.707107     0.000000     0.707107     0.000000     0.184412     0.000000
   13     1.000000   180.000000     1.000000     0.000000     0.000000     0.000000     0.184412     0.000000
   14    -1.000000    90.000000     0.000000    -1.000000     0.000000     0.000000     0.184412     0.000000
   15    -1.000000   180.000000     0.000000     1.000000     0.000000     0.000000     0.184412     0.000000
   16     1.000000   180.000000     0.707107     0.000000    -0.707107     0.000000     0.184412     0.000000
 
 Subroutine IBZKPT returns following result:
 ===========================================
 
 Found      1 irreducible k-points:
 
 Following reciprocal coordinates:
            Coordinates               Weight
  0.000000  0.000000  0.000000      1.000000
 
 Following cartesian coordinates:
            Coordinates               Weight
  0.000000  0.000000  0.000000      1.000000
 


--------------------------------------------------------------------------------------------------------




 Dimension of arrays:
   k-points           NKPTS =      1   k-points in BZ     NKDIM =      1   number of bands    NBANDS=     20
   number of dos      NEDOS =    301   number of ions     NIONS =      6
   non local maximal  LDIM  =      4   non local SUM 2l+1 LMDIM =      8
   total plane-waves  NPLWV = ******
   max r-space proj   IRMAX =      1   max aug-charges    IRDMAX=  33660
   dimension x,y,z NGX =   480 NGY =  480 NGZ =  480
   dimension x,y,z NGXF=   960 NGYF=  960 NGZF=  960
   support grid    NGXF=   960 NGYF=  960 NGZF=  960
   ions per type =               2   4
   NGX,Y,Z   is equivalent  to a cutoff of  22.80, 22.80, 22.80 a.u.
   NGXF,Y,Z  is equivalent  to a cutoff of  45.60, 45.60, 45.60 a.u.

 SYSTEM =  C                                       
 POSCAR =   C  O                                   

 Startparameter for this run:
   NWRITE =      2    write-flag & timer
   PREC   = acc       normal or accurate (medium, high low for compatibility)
   ISTART =      0    job   : 0-new  1-cont  2-samecut
   ICHARG =      2    charge: 1-file 2-atom 10-const
   ISPIN  =      1    spin polarized calculation?
   LNONCOLLINEAR =      F non collinear calculations
   LSORBIT =      F    spin-orbit coupling
   INIWAV =      1    electr: 0-lowe 1-rand  2-diag
   LASPH  =      T    aspherical Exc in radial PAW
   METAGGA=      F    non-selfconsistent MetaGGA calc.

 Electronic Relaxation 1
   ENCUT  = 1600.0 eV 117.60 Ry   10.84 a.u. 114.15114.15114.15*2*pi/ulx,y,z
   ENINI  = 1600.0     initial cutoff
   ENAUG  =  644.9 eV  augmentation charge cutoff
   NELM   =     60;   NELMIN=  2; NELMDL= -5     # of ELM steps 
   EDIFF  = 0.1E-06   stopping-criterion for ELM
   LREAL  =      F    real-space projection
   NLSPLINE    = F    spline interpolate recip. space projectors
   LCOMPAT=      F    compatible to vasp.4.4
   GGA_COMPAT  = T    GGA compatible to vasp.4.4-vasp.4.6
   LMAXPAW     = -100 max onsite density
   LMAXMIX     =    2 max onsite mixed and CHGCAR
   VOSKOWN=      0    Vosko Wilk Nusair interpolation
   ROPT   =    0.00000   0.00000
 Ionic relaxation
   EDIFFG = 0.1E-05   stopping-criterion for IOM
   NSW    =      0    number of steps for IOM
   NBLOCK =      1;   KBLOCK =      1    inner block; outer block 
   IBRION =     -1    ionic relax: 0-MD 1-quasi-New 2-CG
   NFREE  =      0    steps in history (QN), initial steepest desc. (CG)
   ISIF   =      2    stress and relaxation
   IWAVPR =     10    prediction:  0-non 1-charg 2-wave 3-comb
   ISYM   =      2    0-nonsym 1-usesym 2-fastsym
   LCORR  =      T    Harris-Foulkes like correction to forces

   POTIM  = 0.5000    time-step for ionic-motion
   TEIN   =    0.0    initial temperature
   TEBEG  =    0.0;   TEEND  =   0.0 temperature during run
   SMASS  =  -3.00    Nose mass-parameter (am)
   estimated Nose-frequenzy (Omega)   =  0.10E-29 period in steps = 0.13E+47 mass=  -0.280E-25a.u.
   SCALEE = 1.0000    scale energy and forces
   NPACO  =    256;   APACO  = 16.0  distance and # of slots for P.C.
   PSTRESS=    0.0 pullay stress

  Mass of Ions in am
   POMASS =  12.01 16.00
  Ionic Valenz
   ZVAL   =   4.00  6.00
  Atomic Wigner-Seitz radii
   RWIGS  =  -1.00 -1.00
  virtual crystal weights 
   VCA    =   1.00  1.00
   NELECT =      32.0000    total number of electrons
   NUPDOWN=      -1.0000    fix difference up-down

 DOS related values:
   EMIN   =  10.00;   EMAX   =-10.00  energy-range for DOS
   EFERMI =   0.00
   ISMEAR =     0;   SIGMA  =   0.01  broadening in eV -4-tet -1-fermi 0-gaus

 Electronic relaxation 2 (details)
   IALGO  =     38    algorithm
   LDIAG  =      T    sub-space diagonalisation (order eigenvalues)
   LSUBROT=      F    optimize rotation matrix (better conditioning)
   TURBO    =      0    0=normal 1=particle mesh
   IRESTART =      0    0=no restart 2=restart with 2 vectors
   NREBOOT  =      0    no. of reboots
   NMIN     =      0    reboot dimension
   EREF     =   0.00    reference energy to select bands
   IMIX   =      4    mixing-type and parameters
     AMIX     =   0.40;   BMIX     =  1.00
     AMIX_MAG =   1.60;   BMIX_MAG =  1.00
     AMIN     =   0.10
     WC   =   100.;   INIMIX=   1;  MIXPRE=   1;  MAXMIX= -45

 Intra band minimization:
   WEIMIN = 0.0000     energy-eigenvalue tresh-hold
   EBREAK =  0.13E-08  absolut break condition
   DEPER  =   0.30     relativ break condition  

   TIME   =   0.40     timestep for ELM

  volume/ion in A,a.u.               =    7145.83     48222.46
  Fermi-wavevector in a.u.,A,eV,Ry     =   0.148499  0.280622  0.300035  0.022052
  Thomas-Fermi vector in A             =   0.821704
 
 Write flags
   LWAVE        =      T    write WAVECAR
   LDOWNSAMPLE  =      F    k-point downsampling of WAVECAR
   LCHARG       =      T    write CHGCAR
   LVTOT        =      F    write LOCPOT, total local potential
   LVHAR        =      F    write LOCPOT, Hartree potential only
   LELF         =      F    write electronic localiz. function (ELF)
   LORBIT       =      0    0 simple, 1 ext, 2 COOP (PROOUT), +10 PAW based schemes


 Dipole corrections
   LMONO  =      F    monopole corrections only (constant potential shift)
   LDIPOL =      F    correct potential (dipole corrections)
   IDIPOL =      4    1-x, 2-y, 3-z, 4-all directions 
   EPSILON=  1.0000000 bulk dielectric constant

 Exchange correlation treatment:
   GGA     =    --    GGA type
   LEXCH   =     8    internal setting for exchange type
   VOSKOWN=      0    Vosko Wilk Nusair interpolation
   LHFCALC =     F    Hartree Fock is set to
   LHFONE  =     F    Hartree Fock one center treatment
   AEXX    =    0.0000 exact exchange contribution

 Linear response parameters
   LEPSILON=     F    determine dielectric tensor
   LRPA    =     F    only Hartree local field effects (RPA)
   LNABLA  =     F    use nabla operator in PAW spheres
   LVEL    =     F    velocity operator in full k-point grid
   LINTERFAST=   F  fast interpolation
   KINTER  =     0    interpolate to denser k-point grid
   CSHIFT  =0.1000    complex shift for real part using Kramers Kronig
   OMEGAMAX=  -1.0    maximum frequency
   DEG_THRESHOLD= 0.2000000E-02 threshold for treating states as degnerate
   RTIME   =   -0.100 relaxation time in fs
  (WPLASMAI=    0.000 imaginary part of plasma frequency in eV, 0.658/RTIME)
   DFIELD  = 0.0000000 0.0000000 0.0000000 field for delta impulse in time
 
 Orbital magnetization related:
   ORBITALMAG=     F  switch on orbital magnetization
   LCHIMAG   =     F  perturbation theory with respect to B field
   DQ        =  0.001000  dq finite difference perturbation B field
   LLRAUG    =     F  two centre corrections for induced B field



--------------------------------------------------------------------------------------------------------


 Static calculation
 charge density and potential will be updated during run
 non-spin polarized calculation
 Variant of blocked Davidson
 Davidson routine will perform the subspace rotation
 perform sub-space diagonalisation
    after iterative eigenvector-optimisation
 modified Broyden-mixing scheme, WC =      100.0
 initial mixing is a Kerker type mixing with AMIX =  0.4000 and BMIX =      1.0000
 Hartree-type preconditioning will be used
 using additional bands             4
 reciprocal scheme for non local part
 use partial core corrections
 calculate Harris-corrections to forces 
   (improved forces if not selfconsistent)
 use gradient corrections 
 use of overlap-Matrix (Vanderbilt PP)
 Gauss-broadening in eV      SIGMA  =   0.01


--------------------------------------------------------------------------------------------------------


  energy-cutoff  :     1600.00
  volume of cell :    42875.00
      direct lattice vectors                 reciprocal lattice vectors
    35.000000000  0.000000000  0.000000000     0.028571429  0.000000000  0.000000000
     0.000000000 35.000000000  0.000000000     0.000000000  0.028571429  0.000000000
     0.000000000  0.000000000 35.000000000     0.000000000  0.000000000  0.028571429

  length of vectors
    35.000000000 35.000000000 35.000000000     0.028571429  0.028571429  0.028571429


 
 k-points in units of 2pi/SCALE and weight: automatic mesh                          
   0.00000000  0.00000000  0.00000000       1.000
 
 k-points in reciprocal lattice and weights: automatic mesh                          
   0.00000000  0.00000000  0.00000000       1.000
 
 position of ions in fractional coordinates (direct lattice) 
   0.00000000  0.00162817  0.00000000
   0.00000000  0.18278360  0.00000000
   0.00000000  0.03506303  0.00000000
   0.00000000  0.96819331  0.00000000
   0.00000000  0.14934874  0.00000000
   0.00000000  0.21621846  0.00000000
 
 position of ions in cartesian coordinates  (Angst):
   0.00000000  0.05698600  0.00000000
   0.00000000  6.39742600  0.00000000
   0.00000000  1.22720600  0.00000000
   0.00000000 33.88676600  0.00000000
   0.00000000  5.22720600  0.00000000
   0.00000000  7.56764600  0.00000000
 


--------------------------------------------------------------------------------------------------------


 use parallel FFT for orbitals z direction half grid
 k-point   1 :   0.0000 0.0000 0.0000  plane waves: 3115599

 maximum and minimum number of plane-waves per node :    389462   389421

 maximum number of plane-waves:   3115599
 maximum index in each direction: 
   IXMAX=  114   IYMAX=  114   IZMAX=  114
   IXMIN= -114   IYMIN= -114   IZMIN=    0


 parallel 3D FFT for wavefunctions:
    minimum data exchange during FFTs selected (reduces bandwidth)
 parallel 3D FFT for charge:
    minimum data exchange during FFTs selected (reduces bandwidth)


 total amount of memory used by VASP MPI-rank0  5977588. kBytes
=======================================================================

   base      :      30000. kBytes
   nonl-proj :      87230. kBytes
   fftplans  :    2143445. kBytes
   grid      :    3654604. kBytes
   one-center:          1. kBytes
   wavefun   :      62308. kBytes
 
     INWAV:  cpu time    0.0000: real time    0.0000
 Broyden mixing: mesh for mixing (old mesh)
   NGX =229   NGY =229   NGZ =229
  (NGX  =960   NGY  =960   NGZ  =960)
  gives a total of ****** points

 initial charge density was supplied:
 charge density of overlapping atoms calculated
 number of electron      32.0000000 magnetization 
 keeping initial charge density in first step


--------------------------------------------------------------------------------------------------------


 Maximum index for augmentation-charges          2086 (set IRDMAX)


--------------------------------------------------------------------------------------------------------


 First call to EWALD:  gamma=   0.051
 Maximum number of real-space cells 3x 3x 3
 Maximum number of reciprocal cells 3x 3x 3

    FEWALD:  cpu time    0.0007: real time    0.0007


--------------------------------------- Iteration      1(   1)  ---------------------------------------


    POTLOK:  cpu time   39.5527: real time   39.6002
    SETDIJ:  cpu time    0.0797: real time    0.0817
     EDDAV:  cpu time   26.1339: real time   26.1980
       DOS:  cpu time    0.0077: real time    0.0077
    --------------------------------------------
      LOOP:  cpu time   65.7740: real time   65.8877

 eigenvalue-minimisations  :    56
 total energy-change (2. order) : 0.3473090E+03  (-0.6598698E+03)
 number of electron      32.0000000 magnetization 
 augmentation part       32.0000000 magnetization 

 Free energy of the ion-electron system (eV)
  ---------------------------------------------------
  alpha Z        PSCENC =         0.09979497
  Ewald energy   TEWEN  =      1649.94893361
  -Hartree energ DENC   =     -3260.33693865
  -exchange      EXHF   =         0.00000000
  -V(xc)+E(xc)   XCENC  =       135.14803448
  PAW double counting   =      1603.24200032    -1611.57549460
  entropy T*S    EENTRO =        -0.00000000
  eigenvalues    EBANDS =      -193.04215834
  atomic energy  EATOM  =      2023.82482173
  Solvation  Ediel_sol  =         0.00000000
  ---------------------------------------------------
  free energy    TOTEN  =       347.30899352 eV

  energy without entropy =      347.30899352  energy(sigma->0) =      347.30899352


--------------------------------------------------------------------------------------------------------




--------------------------------------- Iteration      1(   2)  ---------------------------------------


     EDDAV:  cpu time   31.5337: real time   31.5843
       DOS:  cpu time    0.0149: real time    0.0149
    --------------------------------------------
      LOOP:  cpu time   31.5485: real time   31.5991

 eigenvalue-minimisations  :    72
 total energy-change (2. order) :-0.1862914E+03  (-0.1860850E+03)
 number of electron      32.0000000 magnetization 
 augmentation part       32.0000000 magnetization 

 Free energy of the ion-electron system (eV)
  ---------------------------------------------------
  alpha Z        PSCENC =         0.09979497
  Ewald energy   TEWEN  =      1649.94893361
  -Hartree energ DENC   =     -3260.33693865
  -exchange      EXHF   =         0.00000000
  -V(xc)+E(xc)   XCENC  =       135.14803448
  PAW double counting   =      1603.24200032    -1611.57549460
  entropy T*S    EENTRO =        -0.00000000
  eigenvalues    EBANDS =      -379.33355973
  atomic energy  EATOM  =      2023.82482173
  Solvation  Ediel_sol  =         0.00000000
  ---------------------------------------------------
  free energy    TOTEN  =       161.01759213 eV

  energy without entropy =      161.01759213  energy(sigma->0) =      161.01759213


--------------------------------------------------------------------------------------------------------




--------------------------------------- Iteration      1(   3)  ---------------------------------------


     EDDAV:  cpu time   28.7926: real time   28.8383
       DOS:  cpu time    0.0122: real time    0.0123
    --------------------------------------------
      LOOP:  cpu time   28.8049: real time   28.8505

 eigenvalue-minimisations  :    64
 total energy-change (2. order) :-0.1355575E+03  (-0.1316503E+03)
 number of electron      32.0000000 magnetization 
 augmentation part       32.0000000 magnetization 

 Free energy of the ion-electron system (eV)
  ---------------------------------------------------
  alpha Z        PSCENC =         0.09979497
  Ewald energy   TEWEN  =      1649.94893361
  -Hartree energ DENC   =     -3260.33693865
  -exchange      EXHF   =         0.00000000
  -V(xc)+E(xc)   XCENC  =       135.14803448
  PAW double counting   =      1603.24200032    -1611.57549460
  entropy T*S    EENTRO =        -0.00000000
  eigenvalues    EBANDS =      -514.89107113
  atomic energy  EATOM  =      2023.82482173
  Solvation  Ediel_sol  =         0.00000000
  ---------------------------------------------------
  free energy    TOTEN  =        25.46008073 eV

  energy without entropy =       25.46008073  energy(sigma->0) =       25.46008073


--------------------------------------------------------------------------------------------------------




--------------------------------------- Iteration      1(   4)  ---------------------------------------


     EDDAV:  cpu time   28.8107: real time   28.8556
       DOS:  cpu time    0.0125: real time    0.0125
    --------------------------------------------
      LOOP:  cpu time   28.8232: real time   28.8681

 eigenvalue-minimisations  :    64
 total energy-change (2. order) :-0.6858305E+02  (-0.6650964E+02)
 number of electron      32.0000000 magnetization 
 augmentation part       32.0000000 magnetization 

 Free energy of the ion-electron system (eV)
  ---------------------------------------------------
  alpha Z        PSCENC =         0.09979497
  Ewald energy   TEWEN  =      1649.94893361
  -Hartree energ DENC   =     -3260.33693865
  -exchange      EXHF   =         0.00000000
  -V(xc)+E(xc)   XCENC  =       135.14803448
  PAW double counting   =      1603.24200032    -1611.57549460
  entropy T*S    EENTRO =        -0.00000000
  eigenvalues    EBANDS =      -583.47412027
  atomic energy  EATOM  =      2023.82482173
  Solvation  Ediel_sol  =         0.00000000
  ---------------------------------------------------
  free energy    TOTEN  =       -43.12296841 eV

  energy without entropy =      -43.12296841  energy(sigma->0) =      -43.12296841


--------------------------------------------------------------------------------------------------------




--------------------------------------- Iteration      1(   5)  ---------------------------------------


     EDDAV:  cpu time   21.9942: real time   22.0288
       DOS:  cpu time    0.0111: real time    0.0111
    CHARGE:  cpu time   20.6081: real time   20.6320
    MIXING:  cpu time    1.1071: real time    1.1082
    --------------------------------------------
      LOOP:  cpu time   43.7205: real time   43.7801

 eigenvalue-minimisations  :    44
 total energy-change (2. order) :-0.6318591E+01  (-0.6316215E+01)
 number of electron      31.9999999 magnetization 
 augmentation part        3.0328690 magnetization 

 Broyden mixing:
  rms(total) = 0.13331E+01    rms(broyden)= 0.13331E+01
  rms(prec ) = 0.13606E+01
  weight for this iteration     100.00

 Free energy of the ion-electron system (eV)
  ---------------------------------------------------
  alpha Z        PSCENC =         0.09979497
  Ewald energy   TEWEN  =      1649.94893361
  -Hartree energ DENC   =     -3260.33693865
  -exchange      EXHF   =         0.00000000
  -V(xc)+E(xc)   XCENC  =       135.14803448
  PAW double counting   =      1603.24200032    -1611.57549460
  entropy T*S    EENTRO =        -0.00000000
  eigenvalues    EBANDS =      -589.79271111
  atomic energy  EATOM  =      2023.82482173
  Solvation  Ediel_sol  =         0.00000000
  ---------------------------------------------------
  free energy    TOTEN  =       -49.44155925 eV

  energy without entropy =      -49.44155925  energy(sigma->0) =      -49.44155925


--------------------------------------------------------------------------------------------------------




--------------------------------------- Iteration      1(   6)  ---------------------------------------


    POTLOK:  cpu time   39.5663: real time   39.6121
    SETDIJ:  cpu time    0.0658: real time    0.0658
     EDDAV:  cpu time   23.3919: real time   23.4283
       DOS:  cpu time    0.0078: real time    0.0078
    CHARGE:  cpu time   20.4417: real time   20.4655
    MIXING:  cpu time    0.9291: real time    0.9356
    --------------------------------------------
      LOOP:  cpu time   84.4027: real time   84.5152

 eigenvalue-minimisations  :    48
 total energy-change (2. order) : 0.3087110E+01  (-0.1821310E+01)
 number of electron      31.9999999 magnetization 
 augmentation part        2.6640069 magnetization 

 Broyden mixing:
  rms(total) = 0.60960E+00    rms(broyden)= 0.60960E+00
  rms(prec ) = 0.61501E+00
  weight for this iteration     100.00

 eigenvalues of (default mixing * dielectric matrix)
  average eigenvalue GAMMA=   1.0328
  1.0328

 Free energy of the ion-electron system (eV)
  ---------------------------------------------------
  alpha Z        PSCENC =         0.09979497
  Ewald energy   TEWEN  =      1649.94893361
  -Hartree energ DENC   =     -3313.06480756
  -exchange      EXHF   =         0.00000000
  -V(xc)+E(xc)   XCENC  =       138.28406874
  PAW double counting   =      2133.22223322    -2142.36890992
  entropy T*S    EENTRO =        -0.00000000
  eigenvalues    EBANDS =      -536.30058411
  atomic energy  EATOM  =      2023.82482173
  Solvation  Ediel_sol  =         0.00000000
  ---------------------------------------------------
  free energy    TOTEN  =       -46.35444932 eV

  energy without entropy =      -46.35444932  energy(sigma->0) =      -46.35444932


--------------------------------------------------------------------------------------------------------




--------------------------------------- Iteration      1(   7)  ---------------------------------------


    POTLOK:  cpu time   39.9584: real time   40.0040
    SETDIJ:  cpu time    0.0605: real time    0.0605
     EDDAV:  cpu time   23.5742: real time   23.6119
       DOS:  cpu time    0.0083: real time    0.0083
    CHARGE:  cpu time   20.5864: real time   20.6104
    MIXING:  cpu time    1.1146: real time    1.1159
    --------------------------------------------
      LOOP:  cpu time   85.3025: real time   85.4111

 eigenvalue-minimisations  :    48
 total energy-change (2. order) : 0.2643120E+00  (-0.4739583E-01)
 number of electron      31.9999999 magnetization 
 augmentation part        2.6970087 magnetization 

 Broyden mixing:
  rms(total) = 0.33802E+00    rms(broyden)= 0.33802E+00
  rms(prec ) = 0.34136E+00
  weight for this iteration     100.00

 eigenvalues of (default mixing * dielectric matrix)
  average eigenvalue GAMMA=   1.6606
  0.9523  2.3689

 Free energy of the ion-electron system (eV)
  ---------------------------------------------------
  alpha Z        PSCENC =         0.09979497
  Ewald energy   TEWEN  =      1649.94893361
  -Hartree energ DENC   =     -3322.89156132
  -exchange      EXHF   =         0.00000000
  -V(xc)+E(xc)   XCENC  =       138.68529665
  PAW double counting   =      2498.67405397    -2507.67032543
  entropy T*S    EENTRO =        -0.00000000
  eigenvalues    EBANDS =      -526.76115151
  atomic energy  EATOM  =      2023.82482173
  Solvation  Ediel_sol  =         0.00000000
  ---------------------------------------------------
  free energy    TOTEN  =       -46.09013733 eV

  energy without entropy =      -46.09013733  energy(sigma->0) =      -46.09013733


--------------------------------------------------------------------------------------------------------




--------------------------------------- Iteration      1(   8)  ---------------------------------------


    POTLOK:  cpu time   39.8837: real time   39.9295
    SETDIJ:  cpu time    0.0558: real time    0.0558
     EDDAV:  cpu time   22.0876: real time   22.1219
       DOS:  cpu time    0.0050: real time    0.0050
    CHARGE:  cpu time   20.3859: real time   20.4102
    MIXING:  cpu time    0.8999: real time    0.9010
    --------------------------------------------
      LOOP:  cpu time   83.3180: real time   83.4234

 eigenvalue-minimisations  :    44
 total energy-change (2. order) : 0.1078289E+00  (-0.5939913E-01)
 number of electron      31.9999999 magnetization 
 augmentation part        2.6887042 magnetization 

 Broyden mixing:
  rms(total) = 0.84348E-01    rms(broyden)= 0.84348E-01
  rms(prec ) = 0.86824E-01
  weight for this iteration     100.00

 eigenvalues of (default mixing * dielectric matrix)
  average eigenvalue GAMMA=   1.1578
  2.3802  0.9501  0.1432

 Free energy of the ion-electron system (eV)
  ---------------------------------------------------
  alpha Z        PSCENC =         0.09979497
  Ewald energy   TEWEN  =      1649.94893361
  -Hartree energ DENC   =     -3339.91596155
  -exchange      EXHF   =         0.00000000
  -V(xc)+E(xc)   XCENC  =       139.49118243
  PAW double counting   =      3067.10363449    -3076.10311429
  entropy T*S    EENTRO =        -0.00000000
  eigenvalues    EBANDS =      -510.43159979
  atomic energy  EATOM  =      2023.82482173
  Solvation  Ediel_sol  =         0.00000000
  ---------------------------------------------------
  free energy    TOTEN  =       -45.98230839 eV

  energy without entropy =      -45.98230839  energy(sigma->0) =      -45.98230839


--------------------------------------------------------------------------------------------------------




--------------------------------------- Iteration      1(   9)  ---------------------------------------


    POTLOK:  cpu time   39.7975: real time   39.8431
    SETDIJ:  cpu time    0.0542: real time    0.0542
     EDDAV:  cpu time   28.9604: real time   29.0058
       DOS:  cpu time    0.0152: real time    0.0152
    CHARGE:  cpu time   20.6202: real time   20.6444
    MIXING:  cpu time    0.8863: real time    0.8876
    --------------------------------------------
      LOOP:  cpu time   90.3339: real time   90.4504

 eigenvalue-minimisations  :    64
 total energy-change (2. order) : 0.1449248E-02  (-0.2224736E-02)
 number of electron      31.9999999 magnetization 
 augmentation part        2.6895673 magnetization 

 Broyden mixing:
  rms(total) = 0.78209E-01    rms(broyden)= 0.78209E-01
  rms(prec ) = 0.80733E-01
  weight for this iteration     100.00

 eigenvalues of (default mixing * dielectric matrix)
  average eigenvalue GAMMA=   1.2105
  2.4107  0.9212  0.7550  0.7550

 Free energy of the ion-electron system (eV)
  ---------------------------------------------------
  alpha Z        PSCENC =         0.09979497
  Ewald energy   TEWEN  =      1649.94893361
  -Hartree energ DENC   =     -3339.93923356
  -exchange      EXHF   =         0.00000000
  -V(xc)+E(xc)   XCENC  =       139.49343926
  PAW double counting   =      3073.36901221    -3082.36515376
  entropy T*S    EENTRO =        -0.00000000
  eigenvalues    EBANDS =      -510.41247360
  atomic energy  EATOM  =      2023.82482173
  Solvation  Ediel_sol  =         0.00000000
  ---------------------------------------------------
  free energy    TOTEN  =       -45.98085914 eV

  energy without entropy =      -45.98085914  energy(sigma->0) =      -45.98085914


--------------------------------------------------------------------------------------------------------




--------------------------------------- Iteration      1(  10)  ---------------------------------------


    POTLOK:  cpu time   39.9719: real time   40.0180
    SETDIJ:  cpu time    0.0770: real time    0.0771
     EDDAV:  cpu time   23.3844: real time   23.4204
       DOS:  cpu time    0.0107: real time    0.0107
    CHARGE:  cpu time   20.4359: real time   20.4594
    MIXING:  cpu time    1.1621: real time    1.1634
    --------------------------------------------
      LOOP:  cpu time   85.0420: real time   85.1489

 eigenvalue-minimisations  :    48
 total energy-change (2. order) : 0.9593416E-02  (-0.5406888E-02)
 number of electron      31.9999999 magnetization 
 augmentation part        2.6706421 magnetization 

 Broyden mixing:
  rms(total) = 0.53304E-01    rms(broyden)= 0.53304E-01
  rms(prec ) = 0.54516E-01
  weight for this iteration     100.00

 eigenvalues of (default mixing * dielectric matrix)
  average eigenvalue GAMMA=   1.3551
  2.4398  1.6513  1.0177  1.0177  0.6492

 Free energy of the ion-electron system (eV)
  ---------------------------------------------------
  alpha Z        PSCENC =         0.09979497
  Ewald energy   TEWEN  =      1649.94893361
  -Hartree energ DENC   =     -3341.32458036
  -exchange      EXHF   =         0.00000000
  -V(xc)+E(xc)   XCENC  =       139.57947140
  PAW double counting   =      3090.79894160    -3099.76647927
  entropy T*S    EENTRO =        -0.00000000
  eigenvalues    EBANDS =      -509.13216940
  atomic energy  EATOM  =      2023.82482173
  Solvation  Ediel_sol  =         0.00000000
  ---------------------------------------------------
  free energy    TOTEN  =       -45.97126573 eV

  energy without entropy =      -45.97126573  energy(sigma->0) =      -45.97126573


--------------------------------------------------------------------------------------------------------




--------------------------------------- Iteration      1(  11)  ---------------------------------------


    POTLOK:  cpu time   39.6385: real time   39.6846
    SETDIJ:  cpu time    0.0622: real time    0.0622
     EDDAV:  cpu time   23.3883: real time   23.4250
       DOS:  cpu time    0.0290: real time    0.0291
    CHARGE:  cpu time   20.4755: real time   20.5001
    MIXING:  cpu time    1.0975: real time    1.0989
    --------------------------------------------
      LOOP:  cpu time   84.6911: real time   84.7998

 eigenvalue-minimisations  :    48
 total energy-change (2. order) :-0.2130395E-02  (-0.1896918E-02)
 number of electron      31.9999999 magnetization 
 augmentation part        2.6712188 magnetization 

 Broyden mixing:
  rms(total) = 0.27968E-01    rms(broyden)= 0.27968E-01
  rms(prec ) = 0.28736E-01
  weight for this iteration     100.00

 eigenvalues of (default mixing * dielectric matrix)
  average eigenvalue GAMMA=   1.3238
  2.3975  1.9989  0.8879  0.8879  1.0235  0.7471

 Free energy of the ion-electron system (eV)
  ---------------------------------------------------
  alpha Z        PSCENC =         0.09979497
  Ewald energy   TEWEN  =      1649.94893361
  -Hartree energ DENC   =     -3340.93938362
  -exchange      EXHF   =         0.00000000
  -V(xc)+E(xc)   XCENC  =       139.52688481
  PAW double counting   =      3107.83634296    -3116.70898092
  entropy T*S    EENTRO =        -0.00000000
  eigenvalues    EBANDS =      -509.56180966
  atomic energy  EATOM  =      2023.82482173
  Solvation  Ediel_sol  =         0.00000000
  ---------------------------------------------------
  free energy    TOTEN  =       -45.97339612 eV

  energy without entropy =      -45.97339612  energy(sigma->0) =      -45.97339612


--------------------------------------------------------------------------------------------------------




--------------------------------------- Iteration      1(  12)  ---------------------------------------


    POTLOK:  cpu time   40.1580: real time   40.2045
    SETDIJ:  cpu time    0.0605: real time    0.0605
     EDDAV:  cpu time   28.9698: real time   29.0148
       DOS:  cpu time    0.0138: real time    0.0138
    CHARGE:  cpu time   20.5301: real time   20.5541
    MIXING:  cpu time    1.0457: real time    1.0470
    --------------------------------------------
      LOOP:  cpu time   90.7779: real time   90.8947

 eigenvalue-minimisations  :    64
 total energy-change (2. order) :-0.2418781E-02  (-0.1211944E-03)
 number of electron      31.9999999 magnetization 
 augmentation part        2.6718427 magnetization 

 Broyden mixing:
  rms(total) = 0.25055E-01    rms(broyden)= 0.25055E-01
  rms(prec ) = 0.25779E-01
  weight for this iteration     100.00

 eigenvalues of (default mixing * dielectric matrix)
  average eigenvalue GAMMA=   1.4747
  2.3638  2.3638  1.4203  1.4203  1.0259  1.0259  0.7031

 Free energy of the ion-electron system (eV)
  ---------------------------------------------------
  alpha Z        PSCENC =         0.09979497
  Ewald energy   TEWEN  =      1649.94893361
  -Hartree energ DENC   =     -3341.00164980
  -exchange      EXHF   =         0.00000000
  -V(xc)+E(xc)   XCENC  =       139.51266356
  PAW double counting   =      3108.65925489    -3117.54029572
  entropy T*S    EENTRO =        -0.00000000
  eigenvalues    EBANDS =      -509.47933813
  atomic energy  EATOM  =      2023.82482173
  Solvation  Ediel_sol  =         0.00000000
  ---------------------------------------------------
  free energy    TOTEN  =       -45.97581490 eV

  energy without entropy =      -45.97581490  energy(sigma->0) =      -45.97581490


--------------------------------------------------------------------------------------------------------




--------------------------------------- Iteration      1(  13)  ---------------------------------------


    POTLOK:  cpu time   39.7014: real time   39.7472
    SETDIJ:  cpu time    0.0709: real time    0.0709
     EDDAV:  cpu time   23.5182: real time   23.5542
       DOS:  cpu time    0.0124: real time    0.0124
    CHARGE:  cpu time   20.3382: real time   20.3615
    MIXING:  cpu time    1.3267: real time    1.3282
    --------------------------------------------
      LOOP:  cpu time   84.9678: real time   85.0745

 eigenvalue-minimisations  :    48
 total energy-change (2. order) :-0.3946037E-02  (-0.6952778E-03)
 number of electron      31.9999999 magnetization 
 augmentation part        2.6793592 magnetization 

 Broyden mixing:
  rms(total) = 0.50803E-02    rms(broyden)= 0.50803E-02
  rms(prec ) = 0.55821E-02
  weight for this iteration     100.00

 eigenvalues of (default mixing * dielectric matrix)
  average eigenvalue GAMMA=   1.4819
  3.0913  2.4565  1.3427  1.2408  1.2408  0.8935  0.8935  0.6958

 Free energy of the ion-electron system (eV)
  ---------------------------------------------------
  alpha Z        PSCENC =         0.09979497
  Ewald energy   TEWEN  =      1649.94893361
  -Hartree energ DENC   =     -3341.02095599
  -exchange      EXHF   =         0.00000000
  -V(xc)+E(xc)   XCENC  =       139.46954139
  PAW double counting   =      3107.14365228    -3116.06224659
  entropy T*S    EENTRO =        -0.00000000
  eigenvalues    EBANDS =      -509.38330234
  atomic energy  EATOM  =      2023.82482173
  Solvation  Ediel_sol  =         0.00000000
  ---------------------------------------------------
  free energy    TOTEN  =       -45.97976094 eV

  energy without entropy =      -45.97976094  energy(sigma->0) =      -45.97976094


--------------------------------------------------------------------------------------------------------




--------------------------------------- Iteration      1(  14)  ---------------------------------------


    POTLOK:  cpu time   39.7953: real time   39.8412
    SETDIJ:  cpu time    0.0643: real time    0.0643
     EDDAV:  cpu time   26.1476: real time   26.1916
       DOS:  cpu time    0.0133: real time    0.0133
    CHARGE:  cpu time   20.4740: real time   20.4977
    MIXING:  cpu time    1.0082: real time    1.0097
    --------------------------------------------
      LOOP:  cpu time   87.5026: real time   87.6178

 eigenvalue-minimisations  :    56
 total energy-change (2. order) :-0.1404868E-02  (-0.5561424E-04)
 number of electron      31.9999999 magnetization 
 augmentation part        2.6782217 magnetization 

 Broyden mixing:
  rms(total) = 0.41765E-02    rms(broyden)= 0.41765E-02
  rms(prec ) = 0.44998E-02
  weight for this iteration     100.00

 eigenvalues of (default mixing * dielectric matrix)
  average eigenvalue GAMMA=   1.4512
  3.1623  2.4991  2.0208  1.0333  1.0333  0.6998  0.8577  0.8771  0.8771

 Free energy of the ion-electron system (eV)
  ---------------------------------------------------
  alpha Z        PSCENC =         0.09979497
  Ewald energy   TEWEN  =      1649.94893361
  -Hartree energ DENC   =     -3341.37173796
  -exchange      EXHF   =         0.00000000
  -V(xc)+E(xc)   XCENC  =       139.47585883
  PAW double counting   =      3108.76622259    -3117.68836270
  entropy T*S    EENTRO =        -0.00000000
  eigenvalues    EBANDS =      -509.03669688
  atomic energy  EATOM  =      2023.82482173
  Solvation  Ediel_sol  =         0.00000000
  ---------------------------------------------------
  free energy    TOTEN  =       -45.98116581 eV

  energy without entropy =      -45.98116581  energy(sigma->0) =      -45.98116581


--------------------------------------------------------------------------------------------------------




--------------------------------------- Iteration      1(  15)  ---------------------------------------


    POTLOK:  cpu time   39.8544: real time   39.9002
    SETDIJ:  cpu time    0.0753: real time    0.0753
     EDDAV:  cpu time   26.2933: real time   26.3352
       DOS:  cpu time    0.0112: real time    0.0112
    CHARGE:  cpu time   20.3445: real time   20.3685
    MIXING:  cpu time    1.2124: real time    1.2139
    --------------------------------------------
      LOOP:  cpu time   87.7912: real time   87.9044

 eigenvalue-minimisations  :    56
 total energy-change (2. order) :-0.1355430E-02  (-0.5770269E-04)
 number of electron      31.9999999 magnetization 
 augmentation part        2.6798909 magnetization 

 Broyden mixing:
  rms(total) = 0.84055E-02    rms(broyden)= 0.84055E-02
  rms(prec ) = 0.86724E-02
  weight for this iteration     100.00

 eigenvalues of (default mixing * dielectric matrix)
  average eigenvalue GAMMA=   1.5710
  3.9396  2.5406  2.1399  1.1826  1.1826  1.1442  1.1442  0.7001  0.8682  0.8682

 Free energy of the ion-electron system (eV)
  ---------------------------------------------------
  alpha Z        PSCENC =         0.09979497
  Ewald energy   TEWEN  =      1649.94893361
  -Hartree energ DENC   =     -3341.57101688
  -exchange      EXHF   =         0.00000000
  -V(xc)+E(xc)   XCENC  =       139.47331907
  PAW double counting   =      3107.78616198    -3116.71402196
  entropy T*S    EENTRO =        -0.00000000
  eigenvalues    EBANDS =      -508.83051376
  atomic energy  EATOM  =      2023.82482173
  Solvation  Ediel_sol  =         0.00000000
  ---------------------------------------------------
  free energy    TOTEN  =       -45.98252124 eV

  energy without entropy =      -45.98252124  energy(sigma->0) =      -45.98252124


--------------------------------------------------------------------------------------------------------




--------------------------------------- Iteration      1(  16)  ---------------------------------------


    POTLOK:  cpu time   39.6949: real time   39.7409
    SETDIJ:  cpu time    0.0585: real time    0.0585
     EDDAV:  cpu time   26.1653: real time   26.2079
       DOS:  cpu time    0.0164: real time    0.0164
    CHARGE:  cpu time   20.4904: real time   20.5145
    MIXING:  cpu time    1.2560: real time    1.2576
    --------------------------------------------
      LOOP:  cpu time   87.6815: real time   87.7958

 eigenvalue-minimisations  :    56
 total energy-change (2. order) :-0.1406784E-02  (-0.5615301E-04)
 number of electron      31.9999999 magnetization 
 augmentation part        2.6778419 magnetization 

 Broyden mixing:
  rms(total) = 0.18404E-02    rms(broyden)= 0.18404E-02
  rms(prec ) = 0.20064E-02
  weight for this iteration     100.00

 eigenvalues of (default mixing * dielectric matrix)
  average eigenvalue GAMMA=   1.6496
  4.9782  2.5094  2.2721  1.9149  1.0616  1.0616  0.6976  0.9491  0.9491  0.8761
  0.8761

 Free energy of the ion-electron system (eV)
  ---------------------------------------------------
  alpha Z        PSCENC =         0.09979497
  Ewald energy   TEWEN  =      1649.94893361
  -Hartree energ DENC   =     -3342.14816505
  -exchange      EXHF   =         0.00000000
  -V(xc)+E(xc)   XCENC  =       139.49029683
  PAW double counting   =      3107.61623917    -3116.53070789
  entropy T*S    EENTRO =        -0.00000000
  eigenvalues    EBANDS =      -508.28514139
  atomic energy  EATOM  =      2023.82482173
  Solvation  Ediel_sol  =         0.00000000
  ---------------------------------------------------
  free energy    TOTEN  =       -45.98392802 eV

  energy without entropy =      -45.98392802  energy(sigma->0) =      -45.98392802


--------------------------------------------------------------------------------------------------------




--------------------------------------- Iteration      1(  17)  ---------------------------------------


    POTLOK:  cpu time   39.6499: real time   39.6954
    SETDIJ:  cpu time    0.0582: real time    0.0582
     EDDAV:  cpu time   26.1725: real time   26.2152
       DOS:  cpu time    0.0111: real time    0.0111
    CHARGE:  cpu time   20.5045: real time   20.5291
    MIXING:  cpu time    1.2652: real time    1.2669
    --------------------------------------------
      LOOP:  cpu time   87.6614: real time   87.7759

 eigenvalue-minimisations  :    56
 total energy-change (2. order) :-0.7382097E-03  (-0.1723876E-04)
 number of electron      31.9999999 magnetization 
 augmentation part        2.6769434 magnetization 

 Broyden mixing:
  rms(total) = 0.22200E-02    rms(broyden)= 0.22200E-02
  rms(prec ) = 0.22994E-02
  weight for this iteration     100.00

 eigenvalues of (default mixing * dielectric matrix)
  average eigenvalue GAMMA=   1.8007
  5.7450  2.7677  2.7677  1.8010  1.8010  1.3134  1.0404  1.0404  0.6982  0.8841
  0.8745  0.8745

 Free energy of the ion-electron system (eV)
  ---------------------------------------------------
  alpha Z        PSCENC =         0.09979497
  Ewald energy   TEWEN  =      1649.94893361
  -Hartree energ DENC   =     -3342.37889722
  -exchange      EXHF   =         0.00000000
  -V(xc)+E(xc)   XCENC  =       139.49626082
  PAW double counting   =      3107.78938082    -3116.69706376
  entropy T*S    EENTRO =        -0.00000000
  eigenvalues    EBANDS =      -508.06789721
  atomic energy  EATOM  =      2023.82482173
  Solvation  Ediel_sol  =         0.00000000
  ---------------------------------------------------
  free energy    TOTEN  =       -45.98466623 eV

  energy without entropy =      -45.98466623  energy(sigma->0) =      -45.98466623


--------------------------------------------------------------------------------------------------------




--------------------------------------- Iteration      1(  18)  ---------------------------------------


    POTLOK:  cpu time   39.7238: real time   39.7692
    SETDIJ:  cpu time    0.0614: real time    0.0615
     EDDAV:  cpu time   23.3857: real time   23.4230
       DOS:  cpu time    0.0096: real time    0.0096
    CHARGE:  cpu time   20.4285: real time   20.4531
    MIXING:  cpu time    1.4563: real time    1.4581
    --------------------------------------------
      LOOP:  cpu time   85.0653: real time   85.1744

 eigenvalue-minimisations  :    48
 total energy-change (2. order) :-0.8047580E-03  (-0.8459733E-05)
 number of electron      31.9999999 magnetization 
 augmentation part        2.6776393 magnetization 

 Broyden mixing:
  rms(total) = 0.52523E-03    rms(broyden)= 0.52523E-03
  rms(prec ) = 0.57789E-03
  weight for this iteration     100.00

 eigenvalues of (default mixing * dielectric matrix)
  average eigenvalue GAMMA=   1.8591
  6.5311  3.5640  2.3123  2.0245  2.0245  1.1550  1.1550  0.6987  0.9008  1.0241
  1.0241  0.8773  0.8773

 Free energy of the ion-electron system (eV)
  ---------------------------------------------------
  alpha Z        PSCENC =         0.09979497
  Ewald energy   TEWEN  =      1649.94893361
  -Hartree energ DENC   =     -3342.36366668
  -exchange      EXHF   =         0.00000000
  -V(xc)+E(xc)   XCENC  =       139.48921703
  PAW double counting   =      3107.78082631    -3116.69326809
  entropy T*S    EENTRO =        -0.00000000
  eigenvalues    EBANDS =      -508.07212988
  atomic energy  EATOM  =      2023.82482173
  Solvation  Ediel_sol  =         0.00000000
  ---------------------------------------------------
  free energy    TOTEN  =       -45.98547099 eV

  energy without entropy =      -45.98547099  energy(sigma->0) =      -45.98547099


--------------------------------------------------------------------------------------------------------




--------------------------------------- Iteration      1(  19)  ---------------------------------------


    POTLOK:  cpu time   39.6912: real time   39.7376
    SETDIJ:  cpu time    0.0651: real time    0.0652
     EDDAV:  cpu time   26.1839: real time   26.2253
       DOS:  cpu time    0.0140: real time    0.0140
    CHARGE:  cpu time   20.4946: real time   20.5200
    MIXING:  cpu time    1.6358: real time    1.6377
    --------------------------------------------
      LOOP:  cpu time   88.0847: real time   88.1997

 eigenvalue-minimisations  :    56
 total energy-change (2. order) :-0.2605099E-03  (-0.9284320E-06)
 number of electron      31.9999999 magnetization 
 augmentation part        2.6775326 magnetization 

 Broyden mixing:
  rms(total) = 0.39252E-03    rms(broyden)= 0.39252E-03
  rms(prec ) = 0.42175E-03
  weight for this iteration     100.00

 eigenvalues of (default mixing * dielectric matrix)
  average eigenvalue GAMMA=   1.9163
  7.2203  3.7748  2.2671  2.1847  2.1847  1.4142  1.4142  1.0251  1.0251  0.8719
  0.8719  0.6987  0.8810  0.9946

 Free energy of the ion-electron system (eV)
  ---------------------------------------------------
  alpha Z        PSCENC =         0.09979497
  Ewald energy   TEWEN  =      1649.94893361
  -Hartree energ DENC   =     -3342.40384700
  -exchange      EXHF   =         0.00000000
  -V(xc)+E(xc)   XCENC  =       139.48931822
  PAW double counting   =      3107.52792508    -3116.44149252
  entropy T*S    EENTRO =        -0.00000000
  eigenvalues    EBANDS =      -508.03118559
  atomic energy  EATOM  =      2023.82482173
  Solvation  Ediel_sol  =         0.00000000
  ---------------------------------------------------
  free energy    TOTEN  =       -45.98573150 eV

  energy without entropy =      -45.98573150  energy(sigma->0) =      -45.98573150


--------------------------------------------------------------------------------------------------------




--------------------------------------- Iteration      1(  20)  ---------------------------------------


    POTLOK:  cpu time   39.4262: real time   39.4726
    SETDIJ:  cpu time    0.0549: real time    0.0549
     EDDAV:  cpu time   23.4967: real time   23.5345
       DOS:  cpu time    0.0168: real time    0.0168
    CHARGE:  cpu time   20.2925: real time   20.3181
    MIXING:  cpu time    1.7007: real time    1.7027
    --------------------------------------------
      LOOP:  cpu time   84.9877: real time   85.0996

 eigenvalue-minimisations  :    48
 total energy-change (2. order) :-0.1892309E-03  (-0.5355134E-06)
 number of electron      31.9999999 magnetization 
 augmentation part        2.6774539 magnetization 

 Broyden mixing:
  rms(total) = 0.15150E-03    rms(broyden)= 0.15150E-03
  rms(prec ) = 0.17360E-03
  weight for this iteration     100.00

 eigenvalues of (default mixing * dielectric matrix)
  average eigenvalue GAMMA=   2.0224
  8.0723  4.5888  2.7353  2.4982  1.8714  1.8714  1.1734  1.1734  1.0254  1.0254
  0.8729  0.8729  0.6986  0.9513  0.9057

 Free energy of the ion-electron system (eV)
  ---------------------------------------------------
  alpha Z        PSCENC =         0.09979497
  Ewald energy   TEWEN  =      1649.94893361
  -Hartree energ DENC   =     -3342.44341445
  -exchange      EXHF   =         0.00000000
  -V(xc)+E(xc)   XCENC  =       139.49025813
  PAW double counting   =      3107.54521429    -3116.45789538
  entropy T*S    EENTRO =        -0.00000000
  eigenvalues    EBANDS =      -507.99363364
  atomic energy  EATOM  =      2023.82482173
  Solvation  Ediel_sol  =         0.00000000
  ---------------------------------------------------
  free energy    TOTEN  =       -45.98592073 eV

  energy without entropy =      -45.98592073  energy(sigma->0) =      -45.98592073


--------------------------------------------------------------------------------------------------------




--------------------------------------- Iteration      1(  21)  ---------------------------------------


    POTLOK:  cpu time   39.4287: real time   39.4748
    SETDIJ:  cpu time    0.0512: real time    0.0512
     EDDAV:  cpu time   23.3883: real time   23.4255
       DOS:  cpu time    0.0109: real time    0.0109
    CHARGE:  cpu time   20.4685: real time   20.4930
    MIXING:  cpu time    1.4299: real time    1.4320
    --------------------------------------------
      LOOP:  cpu time   84.7775: real time   84.8873

 eigenvalue-minimisations  :    48
 total energy-change (2. order) :-0.1000441E-03  (-0.2487263E-06)
 number of electron      31.9999999 magnetization 
 augmentation part        2.6774373 magnetization 

 Broyden mixing:
  rms(total) = 0.17154E-03    rms(broyden)= 0.17154E-03
  rms(prec ) = 0.18003E-03
  weight for this iteration     100.00

 eigenvalues of (default mixing * dielectric matrix)
  average eigenvalue GAMMA=   2.0594
  8.4599  4.8930  3.0087  2.3686  1.9584  1.9584  1.3927  1.3927  1.2326  1.0253
  1.0253  0.8724  0.8724  0.6987  0.8958  0.8958

 Free energy of the ion-electron system (eV)
  ---------------------------------------------------
  alpha Z        PSCENC =         0.09979497
  Ewald energy   TEWEN  =      1649.94893361
  -Hartree energ DENC   =     -3342.44906718
  -exchange      EXHF   =         0.00000000
  -V(xc)+E(xc)   XCENC  =       139.49011103
  PAW double counting   =      3107.62387163    -3116.53630138
  entropy T*S    EENTRO =        -0.00000000
  eigenvalues    EBANDS =      -507.98818519
  atomic energy  EATOM  =      2023.82482173
  Solvation  Ediel_sol  =         0.00000000
  ---------------------------------------------------
  free energy    TOTEN  =       -45.98602077 eV

  energy without entropy =      -45.98602077  energy(sigma->0) =      -45.98602077


--------------------------------------------------------------------------------------------------------




--------------------------------------- Iteration      1(  22)  ---------------------------------------


    POTLOK:  cpu time   39.4557: real time   39.5021
    SETDIJ:  cpu time    0.0569: real time    0.0569
     EDDAV:  cpu time   23.4436: real time   23.4825
       DOS:  cpu time    0.0100: real time    0.0100
    CHARGE:  cpu time   20.5180: real time   20.5428
    MIXING:  cpu time    1.6512: real time    1.6534
    --------------------------------------------
      LOOP:  cpu time   85.1354: real time   85.2478

 eigenvalue-minimisations  :    48
 total energy-change (2. order) :-0.4127478E-04  (-0.4488164E-07)
 number of electron      31.9999999 magnetization 
 augmentation part        2.6774783 magnetization 

 Broyden mixing:
  rms(total) = 0.35817E-04    rms(broyden)= 0.35817E-04
  rms(prec ) = 0.44088E-04
  weight for this iteration     100.00

 eigenvalues of (default mixing * dielectric matrix)
  average eigenvalue GAMMA=   2.1318
  8.9511  5.4688  3.5117  2.5195  2.5195  1.7086  1.7086  1.2373  1.2373  1.0258
  1.0258  0.8727  0.8727  0.6987  1.0758  0.9034  0.9034

 Free energy of the ion-electron system (eV)
  ---------------------------------------------------
  alpha Z        PSCENC =         0.09979497
  Ewald energy   TEWEN  =      1649.94893361
  -Hartree energ DENC   =     -3342.44634310
  -exchange      EXHF   =         0.00000000
  -V(xc)+E(xc)   XCENC  =       139.48970397
  PAW double counting   =      3107.60941343    -3116.52222873
  entropy T*S    EENTRO =        -0.00000000
  eigenvalues    EBANDS =      -507.99015793
  atomic energy  EATOM  =      2023.82482173
  Solvation  Ediel_sol  =         0.00000000
  ---------------------------------------------------
  free energy    TOTEN  =       -45.98606205 eV

  energy without entropy =      -45.98606205  energy(sigma->0) =      -45.98606205


--------------------------------------------------------------------------------------------------------




--------------------------------------- Iteration      1(  23)  ---------------------------------------


    POTLOK:  cpu time   39.3595: real time   39.4052
    SETDIJ:  cpu time    0.0572: real time    0.0573
     EDDAV:  cpu time   18.0274: real time   18.0560
       DOS:  cpu time    0.0089: real time    0.0089
    CHARGE:  cpu time   20.3104: real time   20.3346
    MIXING:  cpu time    1.7363: real time    1.7385
    --------------------------------------------
      LOOP:  cpu time   79.4998: real time   79.6005

 eigenvalue-minimisations  :    32
 total energy-change (2. order) :-0.2412016E-04  (-0.1858664E-07)
 number of electron      31.9999999 magnetization 
 augmentation part        2.6774872 magnetization 

 Broyden mixing:
  rms(total) = 0.59944E-04    rms(broyden)= 0.59944E-04
  rms(prec ) = 0.62246E-04
  weight for this iteration     100.00

 eigenvalues of (default mixing * dielectric matrix)
  average eigenvalue GAMMA=   2.1779
  9.0559  5.8204  3.8287  2.8059  2.3805  2.0483  2.0483  1.3952  1.3952  1.0264
  1.0264  0.8730  0.8730  0.6987  1.1229  0.9338  0.9338  0.9351

 Free energy of the ion-electron system (eV)
  ---------------------------------------------------
  alpha Z        PSCENC =         0.09979497
  Ewald energy   TEWEN  =      1649.94893361
  -Hartree energ DENC   =     -3342.44689376
  -exchange      EXHF   =         0.00000000
  -V(xc)+E(xc)   XCENC  =       139.48958815
  PAW double counting   =      3107.58326518    -3116.49602418
  entropy T*S    EENTRO =        -0.00000000
  eigenvalues    EBANDS =      -507.98957187
  atomic energy  EATOM  =      2023.82482173
  Solvation  Ediel_sol  =         0.00000000
  ---------------------------------------------------
  free energy    TOTEN  =       -45.98608617 eV

  energy without entropy =      -45.98608617  energy(sigma->0) =      -45.98608617


--------------------------------------------------------------------------------------------------------




--------------------------------------- Iteration      1(  24)  ---------------------------------------


    POTLOK:  cpu time   39.4174: real time   39.4632
    SETDIJ:  cpu time    0.0575: real time    0.0576
     EDDAV:  cpu time   18.0141: real time   18.0446
       DOS:  cpu time    0.0096: real time    0.0096
    CHARGE:  cpu time   20.3349: real time   20.3595
    MIXING:  cpu time    1.7769: real time    1.7791
    --------------------------------------------
      LOOP:  cpu time   79.6105: real time   79.7136

 eigenvalue-minimisations  :    32
 total energy-change (2. order) :-0.8851909E-05  (-0.6935828E-08)
 number of electron      31.9999999 magnetization 
 augmentation part        2.6774917 magnetization 

 Broyden mixing:
  rms(total) = 0.65976E-04    rms(broyden)= 0.65976E-04
  rms(prec ) = 0.67996E-04
  weight for this iteration     100.00

 eigenvalues of (default mixing * dielectric matrix)
  average eigenvalue GAMMA=   2.2202
  9.4642  6.2674  4.4068  2.9328  2.4022  2.4022  1.6483  1.6483  1.3362  1.3362
  1.0268  1.0268  0.8729  0.8729  0.6987  1.0213  1.0213  0.8993  0.8993

 Free energy of the ion-electron system (eV)
  ---------------------------------------------------
  alpha Z        PSCENC =         0.09979497
  Ewald energy   TEWEN  =      1649.94893361
  -Hartree energ DENC   =     -3342.44775797
  -exchange      EXHF   =         0.00000000
  -V(xc)+E(xc)   XCENC  =       139.48958353
  PAW double counting   =      3107.58254792    -3116.49529578
  entropy T*S    EENTRO =        -0.00000000
  eigenvalues    EBANDS =      -507.98872304
  atomic energy  EATOM  =      2023.82482173
  Solvation  Ediel_sol  =         0.00000000
  ---------------------------------------------------
  free energy    TOTEN  =       -45.98609502 eV

  energy without entropy =      -45.98609502  energy(sigma->0) =      -45.98609502


--------------------------------------------------------------------------------------------------------




--------------------------------------- Iteration      1(  25)  ---------------------------------------


    POTLOK:  cpu time   39.4662: real time   39.5120
    SETDIJ:  cpu time    0.0660: real time    0.0660
     EDDAV:  cpu time   17.9621: real time   17.9919
       DOS:  cpu time    0.0130: real time    0.0130
    CHARGE:  cpu time   20.2975: real time   20.3220
    MIXING:  cpu time    1.8494: real time    1.8518
    --------------------------------------------
      LOOP:  cpu time   79.6540: real time   79.7566

 eigenvalue-minimisations  :    32
 total energy-change (2. order) :-0.4302512E-05  (-0.6573803E-08)
 number of electron      31.9999999 magnetization 
 augmentation part        2.6774727 magnetization 

 Broyden mixing:
  rms(total) = 0.14624E-04    rms(broyden)= 0.14624E-04
  rms(prec ) = 0.15185E-04
  weight for this iteration     100.00

 eigenvalues of (default mixing * dielectric matrix)
  average eigenvalue GAMMA=   2.1976
  9.4872  6.3467  4.4626  2.8336  2.5221  2.5221  1.8431  1.8431  1.3637  1.3637
  1.0268  1.0268  0.8730  0.8730  0.6987  1.1432  1.0163  0.8965  0.8965  0.9142

 Free energy of the ion-electron system (eV)
  ---------------------------------------------------
  alpha Z        PSCENC =         0.09979497
  Ewald energy   TEWEN  =      1649.94893361
  -Hartree energ DENC   =     -3342.45012451
  -exchange      EXHF   =         0.00000000
  -V(xc)+E(xc)   XCENC  =       139.48972296
  PAW double counting   =      3107.59613677    -3116.50874079
  entropy T*S    EENTRO =        -0.00000000
  eigenvalues    EBANDS =      -507.98664407
  atomic energy  EATOM  =      2023.82482173
  Solvation  Ediel_sol  =         0.00000000
  ---------------------------------------------------
  free energy    TOTEN  =       -45.98609932 eV

  energy without entropy =      -45.98609932  energy(sigma->0) =      -45.98609932


--------------------------------------------------------------------------------------------------------




--------------------------------------- Iteration      1(  26)  ---------------------------------------


    POTLOK:  cpu time   39.3256: real time   39.3730
    SETDIJ:  cpu time    0.0614: real time    0.0614
     EDDAV:  cpu time   17.9921: real time   18.0219
       DOS:  cpu time    0.0080: real time    0.0080
    CHARGE:  cpu time   20.3062: real time   20.3302
    MIXING:  cpu time    1.9054: real time    1.9079
    --------------------------------------------
      LOOP:  cpu time   79.5986: real time   79.7023

 eigenvalue-minimisations  :    32
 total energy-change (2. order) :-0.1617549E-05  (-0.4106084E-08)
 number of electron      31.9999999 magnetization 
 augmentation part        2.6774643 magnetization 

 Broyden mixing:
  rms(total) = 0.45033E-04    rms(broyden)= 0.45033E-04
  rms(prec ) = 0.46141E-04
  weight for this iteration     100.00

 eigenvalues of (default mixing * dielectric matrix)
  average eigenvalue GAMMA=   2.2256
  9.5500  6.6379  4.6272  3.2670  2.5691  2.5691  2.4200  1.5123  1.5123  1.3909
  1.3909  1.0270  1.0270  0.8729  0.8729  1.2113  0.6987  0.9709  0.9187  0.9187
  0.7729

 Free energy of the ion-electron system (eV)
  ---------------------------------------------------
  alpha Z        PSCENC =         0.09979497
  Ewald energy   TEWEN  =      1649.94893361
  -Hartree energ DENC   =     -3342.45067640
  -exchange      EXHF   =         0.00000000
  -V(xc)+E(xc)   XCENC  =       139.48976617
  PAW double counting   =      3107.59734731    -3116.50997595
  entropy T*S    EENTRO =        -0.00000000
  eigenvalues    EBANDS =      -507.98611238
  atomic energy  EATOM  =      2023.82482173
  Solvation  Ediel_sol  =         0.00000000
  ---------------------------------------------------
  free energy    TOTEN  =       -45.98610094 eV

  energy without entropy =      -45.98610094  energy(sigma->0) =      -45.98610094


--------------------------------------------------------------------------------------------------------




--------------------------------------- Iteration      1(  27)  ---------------------------------------


    POTLOK:  cpu time   39.4302: real time   39.4762
    SETDIJ:  cpu time    0.0494: real time    0.0495
     EDDAV:  cpu time   18.0083: real time   18.0390
       DOS:  cpu time    0.0032: real time    0.0032
    CHARGE:  cpu time   20.2773: real time   20.3018
    MIXING:  cpu time    2.0005: real time    2.0030
    --------------------------------------------
      LOOP:  cpu time   79.7688: real time   79.8727

 eigenvalue-minimisations  :    32
 total energy-change (2. order) :-0.1162507E-05  (-0.1673921E-08)
 number of electron      31.9999999 magnetization 
 augmentation part        2.6774698 magnetization 

 Broyden mixing:
  rms(total) = 0.16455E-04    rms(broyden)= 0.16455E-04
  rms(prec ) = 0.16908E-04
  weight for this iteration     100.00

 eigenvalues of (default mixing * dielectric matrix)
  average eigenvalue GAMMA=   2.2399
  9.6745  6.9551  5.0228  3.8913  2.6447  2.4508  2.4508  1.6595  1.6595  1.2958
  1.2958  1.0265  1.0265  0.8729  0.8729  0.6987  0.9825  0.9825  0.8941  0.8941
  1.0133  1.0133

 Free energy of the ion-electron system (eV)
  ---------------------------------------------------
  alpha Z        PSCENC =         0.09979497
  Ewald energy   TEWEN  =      1649.94893361
  -Hartree energ DENC   =     -3342.44981113
  -exchange      EXHF   =         0.00000000
  -V(xc)+E(xc)   XCENC  =       139.48970103
  PAW double counting   =      3107.59195394    -3116.50465639
  entropy T*S    EENTRO =        -0.00000000
  eigenvalues    EBANDS =      -507.98683986
  atomic energy  EATOM  =      2023.82482173
  Solvation  Ediel_sol  =         0.00000000
  ---------------------------------------------------
  free energy    TOTEN  =       -45.98610210 eV

  energy without entropy =      -45.98610210  energy(sigma->0) =      -45.98610210


--------------------------------------------------------------------------------------------------------




--------------------------------------- Iteration      1(  28)  ---------------------------------------


    POTLOK:  cpu time   39.3826: real time   39.4283
    SETDIJ:  cpu time    0.0624: real time    0.0624
     EDDAV:  cpu time   17.9598: real time   17.9887
       DOS:  cpu time    0.0119: real time    0.0119
    CHARGE:  cpu time   20.2545: real time   20.2790
    MIXING:  cpu time    2.0523: real time    2.0551
    --------------------------------------------
      LOOP:  cpu time   79.7236: real time   79.8253

 eigenvalue-minimisations  :    32
 total energy-change (2. order) :-0.3927648E-06  (-0.2618002E-08)
 number of electron      31.9999999 magnetization 
 augmentation part        2.6774795 magnetization 

 Broyden mixing:
  rms(total) = 0.19869E-04    rms(broyden)= 0.19869E-04
  rms(prec ) = 0.20274E-04
  weight for this iteration     100.00

 eigenvalues of (default mixing * dielectric matrix)
  average eigenvalue GAMMA=   2.1649
  9.6848  6.9622  5.0498  3.8652  2.6532  2.4060  2.4060  1.6229  1.6229  1.3523
  1.3523  1.0269  1.0269  0.8729  0.8729  0.6987  1.0140  1.0140  0.9050  0.9050
  0.9704  0.9704  0.5372

 Free energy of the ion-electron system (eV)
  ---------------------------------------------------
  alpha Z        PSCENC =         0.09979497
  Ewald energy   TEWEN  =      1649.94893361
  -Hartree energ DENC   =     -3342.44884166
  -exchange      EXHF   =         0.00000000
  -V(xc)+E(xc)   XCENC  =       139.48963738
  PAW double counting   =      3107.58996808    -3116.50268164
  entropy T*S    EENTRO =        -0.00000000
  eigenvalues    EBANDS =      -507.98773497
  atomic energy  EATOM  =      2023.82482173
  Solvation  Ediel_sol  =         0.00000000
  ---------------------------------------------------
  free energy    TOTEN  =       -45.98610250 eV

  energy without entropy =      -45.98610250  energy(sigma->0) =      -45.98610250


--------------------------------------------------------------------------------------------------------




--------------------------------------- Iteration      1(  29)  ---------------------------------------


    POTLOK:  cpu time   39.5073: real time   39.5531
    SETDIJ:  cpu time    0.0578: real time    0.0579
     EDDAV:  cpu time   18.0077: real time   18.0361
       DOS:  cpu time    0.0101: real time    0.0101
    --------------------------------------------
      LOOP:  cpu time   57.5829: real time   57.6571

 eigenvalue-minimisations  :    32
 total energy-change (2. order) :-0.8179995E-07  (-0.1076884E-08)
 number of electron      31.9999999 magnetization 
 augmentation part        2.6774795 magnetization 

 Free energy of the ion-electron system (eV)
  ---------------------------------------------------
  alpha Z        PSCENC =         0.09979497
  Ewald energy   TEWEN  =      1649.94893361
  -Hartree energ DENC   =     -3342.44928277
  -exchange      EXHF   =         0.00000000
  -V(xc)+E(xc)   XCENC  =       139.48966659
  PAW double counting   =      3107.59136712    -3116.50405850
  entropy T*S    EENTRO =        -0.00000000
  eigenvalues    EBANDS =      -507.98734532
  atomic energy  EATOM  =      2023.82482173
  Solvation  Ediel_sol  =         0.00000000
  ---------------------------------------------------
  free energy    TOTEN  =       -45.98610258 eV

  energy without entropy =      -45.98610258  energy(sigma->0) =      -45.98610258


--------------------------------------------------------------------------------------------------------




 average (electrostatic) potential at core
  the test charge radii are     0.6991  0.7215
  (the norm of the test charge is              1.0000)
       1 -63.6320       2 -63.6320       3 -82.6430       4 -82.6548       5 -82.6430
       6 -82.6548
 
 
 
 E-fermi :  -8.9094     XC(G=0):  -0.0460     alpha+bet : -0.0117


 k-point     1 :       0.0000    0.0000    0.0000
  band No.  band energies     occupation 
      1     -29.1853      2.00000
      2     -29.1850      2.00000
      3     -28.1775      2.00000
      4     -28.1769      2.00000
      5     -13.7221      2.00000
      6     -13.6943      2.00000
      7     -12.6530      2.00000
      8     -12.6530      2.00000
      9     -12.6513      2.00000
     10     -12.6513      2.00000
     11     -12.5717      2.00000
     12     -12.5338      2.00000
     13      -9.0381      2.00000
     14      -9.0381      2.00000
     15      -9.0312      2.00000
     16      -9.0312      2.00000
     17      -1.0737      0.00000
     18      -0.8350      0.00000
     19      -0.4826      0.00000
     20      -0.4761      0.00000


--------------------------------------------------------------------------------------------------------


 soft charge-density along one line, spin component            1
         0         1         2         3         4         5         6         7         8         9
 total charge-density along one line
 
 pseudopotential strength for first ion, spin component:            1
 10.552  14.039  -0.000  -0.000  -0.000   0.000   0.000   0.000
 14.039  18.680  -0.000  -0.000  -0.000   0.000   0.000   0.000
 -0.000  -0.000  -4.687  -0.000  -0.000   9.149   0.000   0.000
 -0.000  -0.000  -0.000  -4.613   0.000   0.000   9.026   0.000
 -0.000  -0.000  -0.000   0.000  -4.613   0.000   0.000   9.026
  0.000   0.000   9.149   0.000   0.000 -20.018  -0.000  -0.000
  0.000   0.000   0.000   9.026   0.000  -0.000 -19.812  -0.000
  0.000   0.000   0.000   0.000   9.026  -0.000  -0.000 -19.812
 total augmentation occupancy for first ion, spin component:            1
 11.074  -5.579  -0.001  -0.000   0.000  -0.000  -0.000   0.000
 -5.579   3.019   0.001  -0.000   0.000   0.000   0.000   0.000
 -0.001   0.001   2.593  -0.000   0.000   0.330   0.000   0.000
 -0.000  -0.000  -0.000   1.239   0.000  -0.000   0.083  -0.000
  0.000   0.000   0.000   0.000   1.239   0.000  -0.000   0.083
 -0.000   0.000   0.330  -0.000   0.000   0.051  -0.000  -0.000
 -0.000   0.000   0.000   0.083  -0.000  -0.000   0.006   0.000
  0.000   0.000   0.000  -0.000   0.083  -0.000   0.000   0.006


------------------------ aborting loop because EDIFF is reached ----------------------------------------



 DIPCOR: dipole corrections for dipol
 direction  1 min pos   441, direction  2 min pos   537, direction  3 min pos   489,
 dipolmoment          -0.000024     -0.000019      0.000006 electrons x Angstroem
 Tr[quadrupol]        15.823157

 energy correction for charged system         0.000000 eV
 dipol+quadrupol energy correction            0.000000 eV
 added-field ion interaction          0.000000 eV  (added to PSCEN)

 
  *************** adding dipol energy to TOTEN NOW **************** 
    CHARGE:  cpu time   20.2353: real time   20.2594
    FORLOC:  cpu time    2.1031: real time    2.1050
    FORNL :  cpu time    1.1335: real time    1.1351
    STRESS:  cpu time    7.0824: real time    7.0937
    FORCOR:  cpu time   39.8239: real time   39.8689
    FORHAR:  cpu time   11.4949: real time   11.5105
    MIXING:  cpu time    1.7337: real time    1.7364
    OFIELD:  cpu time    0.0000: real time    0.0000

  FORCE on cell =-STRESS in cart. coord.  units (eV):
  Direction    XX          YY          ZZ          XY          YZ          ZX
  --------------------------------------------------------------------------------------
  Alpha Z     0.09979     0.09979     0.09979
  Ewald    -202.82125  2055.59227  -202.82125    -0.00000    -0.00000     0.00000
  Hartree   650.33107  2041.78781   650.33107    -0.00000     0.00000     0.00000
  E(xc)    -150.33921  -146.12478  -150.33921     0.00000    -0.00000    -0.00000
  Local    -914.76092 -4418.36060  -914.76092     0.00000    -0.00000     0.00000
  n-local   -97.06475  -109.30123   -97.06472    -0.00000    -0.00000     0.00000
  augment    26.55018    21.02979    26.55018     0.00000     0.00000    -0.00000
  Kinetic   688.00126   558.23273   688.00123     0.00000     0.00000    -0.00000
  Fock        0.00000     0.00000     0.00000     0.00000     0.00000     0.00000
  -------------------------------------------------------------------------------------
  Total      -0.00381     2.95579    -0.00381     0.00000     0.00000     0.00000
  in kB      -0.00014     0.11045    -0.00014     0.00000     0.00000     0.00000
  external pressure =        0.04 kB  Pullay stress =        0.00 kB


 VOLUME and BASIS-vectors are now :
 -----------------------------------------------------------------------------
  energy-cutoff  :     1600.00
  volume of cell :    42875.00
      direct lattice vectors                 reciprocal lattice vectors
    35.000000000  0.000000000  0.000000000     0.028571429  0.000000000  0.000000000
     0.000000000 35.000000000  0.000000000     0.000000000  0.028571429  0.000000000
     0.000000000  0.000000000 35.000000000     0.000000000  0.000000000  0.028571429

  length of vectors
    35.000000000 35.000000000 35.000000000     0.028571429  0.028571429  0.028571429


 FORCES acting on ions
    electron-ion (+dipol)            ewald-force                    non-local-force                 convergence-correction
 -----------------------------------------------------------------------------------------------
   0.647E-15 0.242E+02 0.560E-09   0.940E-18 -.242E+02 0.188E-17   0.944E-24 -.186E-01 -.517E-25   0.123E-13 -.293E-04 0.501E-13
   0.231E-14 -.242E+02 0.565E-09   -.316E-17 0.242E+02 0.284E-17   -.103E-24 0.186E-01 0.220E-24   -.293E-14 0.293E-04 -.768E-15
   0.142E-14 -.224E+03 0.528E-09   0.503E-17 0.289E+03 -.735E-17   0.346E-24 -.645E+02 -.258E-25   0.281E-13 -.168E-03 0.523E-13
   0.168E-14 0.307E+03 0.607E-09   0.660E-17 -.372E+03 -.139E-17   0.459E-24 0.643E+02 -.775E-25   0.235E-13 0.162E-03 0.134E-12
   0.393E-14 0.224E+03 0.564E-09   0.218E-17 -.289E+03 -.559E-17   0.388E-25 0.645E+02 -.711E-25   0.419E-14 0.168E-03 0.794E-14
   0.129E-16 -.307E+03 0.587E-09   -.769E-17 0.372E+03 -.694E-18   0.168E-24 -.643E+02 -.103E-24   0.211E-14 -.162E-03 -.824E-14
 -----------------------------------------------------------------------------------------------
   0.100E-13 -.670E-06 0.341E-08   0.390E-17 0.000E+00 -.103E-16   0.185E-23 0.000E+00 -.110E-24   0.673E-13 -.640E-11 0.235E-12
 
 
 POSITION                                       TOTAL-FORCE (eV/Angst)
 -----------------------------------------------------------------------------------
      0.00000      0.05699      0.00000         0.000000      0.041801      0.000000
      0.00000      6.39743      0.00000        -0.000000     -0.041801      0.000000
      0.00000      1.22721      0.00000        -0.000000      0.610713     -0.000000
      0.00000     33.88677      0.00000         0.000000     -0.652997     -0.000000
      0.00000      5.22721      0.00000         0.000000     -0.610713     -0.000000
      0.00000      7.56765      0.00000        -0.000000      0.652997     -0.000000
 -----------------------------------------------------------------------------------
    total drift:                                0.000000     -0.000001      0.000000


--------------------------------------------------------------------------------------------------------



  FREE ENERGIE OF THE ION-ELECTRON SYSTEM (eV)
  ---------------------------------------------------
  free  energy   TOTEN  =       -45.98610258 eV

  energy  without entropy=      -45.98610258  energy(sigma->0) =      -45.98610258
 


--------------------------------------------------------------------------------------------------------


    POTLOK:  cpu time   40.3690: real time   40.4149


--------------------------------------------------------------------------------------------------------


 writing wavefunctions
     LOOP+:  cpu time 3057.6137: real time 3069.8100
    4ORBIT:  cpu time    0.0000: real time    0.0000

 total amount of memory used by VASP MPI-rank0  5977588. kBytes
=======================================================================

   base      :      30000. kBytes
   nonl-proj :      87230. kBytes
   fftplans  :    2143445. kBytes
   grid      :    3654604. kBytes
   one-center:          1. kBytes
   wavefun   :      62308. kBytes
 
  
  
 General timing and accounting informations for this job:
 ========================================================
  
                  Total CPU time used (sec):     3907.160
                            User time (sec):     3726.138
                          System time (sec):      181.022
                         Elapsed time (sec):     3938.129
  
                   Maximum memory used (kb):     8054776.
                   Average memory used (kb):           0.
  
                          Minor page faults:    161019472
                          Major page faults:          125
                 Voluntary context switches:         2922
