 vasp.6.1.2 22Jul20 (build Jan  6 2021 09:55:43) gamma-only                      
 executed on             LinuxPGI date 2021.04.14  06:54:07
 running on   16 total cores
 distrk:  each k-point on   16 cores,    1 groups
 distr:  one band on NCORE=   8 cores,    2 groups


--------------------------------------------------------------------------------------------------------


 INCAR:
 POTCAR:    PAW_PBE C 08Apr2002                   
 POTCAR:    PAW_PBE O 08Apr2002                   
 POTCAR:    PAW_PBE C 08Apr2002                   
   VRHFIN =C: s2p2                                                                                  
   LEXCH  = PE                                                                                      
   EATOM  =   147.1560 eV,   10.8157 Ry                                                             
                                                                                                    
   TITEL  = PAW_PBE C 08Apr2002                                                                     
   LULTRA =        F    use ultrasoft PP ?                                                          
   IUNSCR =        1    unscreen: 0-lin 1-nonlin 2-no                                               
   RPACOR =    1.200    partial core radius                                                         
   POMASS =   12.011; ZVAL   =    4.000    mass and valenz                                          
   RCORE  =    1.500    outmost cutoff radius                                                       
   RWIGS  =    1.630; RWIGS  =    0.863    wigner-seitz radius (au A)                               
   ENMAX  =  400.000; ENMIN  =  300.000 eV                                                          
   ICORE  =        2    local potential                                                             
   LCOR   =        T    correct aug charges                                                         
   LPAW   =        T    paw PP                                                                      
   EAUG   =  644.873                                                                                
   DEXC   =    0.000                                                                                
   RMAX   =    1.529    core radius for proj-oper                                                   
   RAUG   =    1.300    factor for augmentation sphere                                              
   RDEP   =    1.501    radius for radial grids                                                     
   RDEPT  =    1.300    core radius for aug-charge                                                  
                                                                                                    
   Atomic configuration                                                                             
    4 entries                                                                                       
     n  l   j            E        occ.                                                              
     1  0  0.50      -273.3789   2.0000                                                             
     2  0  0.50       -13.7508   2.0000                                                             
     2  1  0.50        -5.2854   2.0000                                                             
     3  2  1.50        -5.4423   0.0000                                                             
   Description                                                                                      
     l       E           TYP  RCUT    TYP  RCUT                                                     
     0    -13.7508458     23  1.200                                                                 
     0     -8.2022199     23  1.200                                                                 
     1     -5.2854383     23  1.500                                                                 
     1     34.0145650     23  1.500                                                                 
     2     -5.4423304      7  1.500                                                                 
  local pseudopotential read in
  partial core-charges read in
  partial kinetic energy density read in
  atomic valenz-charges read in
  non local Contribution for L=            0  read in
    real space projection operators read in
  non local Contribution for L=            0  read in
    real space projection operators read in
  non local Contribution for L=            1  read in
    real space projection operators read in
  non local Contribution for L=            1  read in
    real space projection operators read in
    PAW grid and wavefunctions read in
 
   number of l-projection  operators is LMAX  =            4
   number of lm-projection operators is LMMAX =            8
 
 POTCAR:    PAW_PBE O 08Apr2002                   
   VRHFIN =O: s2p4                                                                                  
   LEXCH  = PE                                                                                      
   EATOM  =   432.3788 eV,   31.7789 Ry                                                             
                                                                                                    
   TITEL  = PAW_PBE O 08Apr2002                                                                     
   LULTRA =        F    use ultrasoft PP ?                                                          
   IUNSCR =        1    unscreen: 0-lin 1-nonlin 2-no                                               
   RPACOR =    1.200    partial core radius                                                         
   POMASS =   16.000; ZVAL   =    6.000    mass and valenz                                          
   RCORE  =    1.520    outmost cutoff radius                                                       
   RWIGS  =    1.550; RWIGS  =    0.820    wigner-seitz radius (au A)                               
   ENMAX  =  400.000; ENMIN  =  300.000 eV                                                          
   ICORE  =        2    local potential                                                             
   LCOR   =        T    correct aug charges                                                         
   LPAW   =        T    paw PP                                                                      
   EAUG   =  605.392                                                                                
   DEXC   =    0.000                                                                                
   RMAX   =    1.553    core radius for proj-oper                                                   
   RAUG   =    1.300    factor for augmentation sphere                                              
   RDEP   =    1.550    radius for radial grids                                                     
   RDEPT  =    1.329    core radius for aug-charge                                                  
                                                                                                    
   Atomic configuration                                                                             
    4 entries                                                                                       
     n  l   j            E        occ.                                                              
     1  0  0.50      -514.6923   2.0000                                                             
     2  0  0.50       -23.9615   2.0000                                                             
     2  1  0.50        -9.0305   4.0000                                                             
     3  2  1.50        -9.5241   0.0000                                                             
   Description                                                                                      
     l       E           TYP  RCUT    TYP  RCUT                                                     
     0    -23.9615318     23  1.200                                                                 
     0     -9.5240782     23  1.200                                                                 
     1     -9.0304911     23  1.520                                                                 
     1      8.1634956     23  1.520                                                                 
     2     -9.5240782      7  1.500                                                                 
  local pseudopotential read in
  partial core-charges read in
  partial kinetic energy density read in
  kinetic energy density of atom read in
  atomic valenz-charges read in
  non local Contribution for L=            0  read in
    real space projection operators read in
  non local Contribution for L=            0  read in
    real space projection operators read in
  non local Contribution for L=            1  read in
    real space projection operators read in
  non local Contribution for L=            1  read in
    real space projection operators read in
    PAW grid and wavefunctions read in
 
   number of l-projection  operators is LMAX  =            4
   number of lm-projection operators is LMMAX =            8
 
  PAW_PBE C 08Apr2002                   :
 energy of atom  1       EATOM= -147.1560
 kinetic energy error for atom=    0.0002 (will be added to EATOM!!)
  PAW_PBE O 08Apr2002                   :
 energy of atom  2       EATOM= -432.3788
 kinetic energy error for atom=    0.0005 (will be added to EATOM!!)
 
 
 POSCAR:  C  O
  positions in cartesian coordinates
  No initial velocities read in
 exchange correlation table for  LEXCH =        8
   RHO(1)=    0.500       N(1)  =     2000
   RHO(2)=  100.500       N(2)  =     4000
 


--------------------------------------------------------------------------------------------------------


 ion  position               nearest neighbor table
   1  0.000  0.002  0.000-   3 1.17   4 1.17
   2  0.000  0.200  0.000-   5 1.17   6 1.17
   3  0.000  0.035  0.000-   1 1.17
   4  0.000  0.968  0.000-   1 1.17
   5  0.000  0.166  0.000-   2 1.17
   6  0.000  0.233  0.000-   2 1.17
 
  LATTYP: Found a simple cubic cell.
 ALAT       =    35.0000000000
  
  Lattice vectors:
  
 A1 = (  35.0000000000,   0.0000000000,   0.0000000000)
 A2 = (   0.0000000000,  35.0000000000,   0.0000000000)
 A3 = (   0.0000000000,   0.0000000000,  35.0000000000)


Analysis of symmetry for initial positions (statically):
=====================================================================
 Subroutine PRICEL returns:
 Original cell was already a primitive cell.
 

 Routine SETGRP: Setting up the symmetry group for a 
 simple cubic supercell.


 Subroutine GETGRP returns: Found 16 space group operations
 (whereof  8 operations were pure point group operations)
 out of a pool of 48 trial point group operations.


The static configuration has the point symmetry C_4v.
 The point group associated with its full space group is D_4h.


Analysis of symmetry for dynamics (positions and initial velocities):
=====================================================================
 Subroutine PRICEL returns:
 Original cell was already a primitive cell.
 

 Routine SETGRP: Setting up the symmetry group for a 
 simple cubic supercell.


 Subroutine GETGRP returns: Found 16 space group operations
 (whereof  8 operations were pure point group operations)
 out of a pool of 48 trial point group operations.


The dynamic configuration has the point symmetry C_4v.
 The point group associated with its full space group is D_4h.


 Subroutine INISYM returns: Found 16 space group operations
 (whereof  8 operations are pure point group operations),
 and found     1 'primitive' translations


----------------------------------------------------------------------------------------

                                     Primitive cell                                     

  volume of cell :   42875.0000

  direct lattice vectors                    reciprocal lattice vectors
    35.000000000  0.000000000  0.000000000     0.028571429  0.000000000  0.000000000
     0.000000000 35.000000000  0.000000000     0.000000000  0.028571429  0.000000000
     0.000000000  0.000000000 35.000000000     0.000000000  0.000000000  0.028571429

  length of vectors
    35.000000000 35.000000000 35.000000000     0.028571429  0.028571429  0.028571429

  position of ions in fractional coordinates (direct lattice)
     0.000000000  0.001628171  0.000000000
     0.000000000  0.199926457  0.000000000
     0.000000000  0.035063029  0.000000000
     0.000000000  0.968193314  0.000000000
     0.000000000  0.166491600  0.000000000
     0.000000000  0.233361314  0.000000000

  ion indices of the primitive-cell ions
   primitive index   ion index
                 1           1
                 2           2
                 3           3
                 4           4
                 5           5
                 6           6

----------------------------------------------------------------------------------------

 
 
 KPOINTS: automatic mesh                          

Automatic generation of k-mesh.
Space group operators:
 irot       det(A)        alpha          n_x          n_y          n_z        tau_x        tau_y        tau_z
    1     1.000000     0.000000     1.000000     0.000000     0.000000     0.000000     0.000000     0.000000
    2     1.000000    90.000000     0.000000     1.000000     0.000000     0.000000     0.000000     0.000000
    3    -1.000000   180.000000     0.000000     0.000000     1.000000     0.000000     0.000000     0.000000
    4    -1.000000   180.000000     0.707107     0.000000     0.707107     0.000000     0.000000     0.000000
    5    -1.000000   180.000000     1.000000     0.000000     0.000000     0.000000     0.000000     0.000000
    6     1.000000    90.000000     0.000000    -1.000000     0.000000     0.000000     0.000000     0.000000
    7     1.000000   180.000000     0.000000     1.000000     0.000000     0.000000     0.000000     0.000000
    8    -1.000000   180.000000     0.707107     0.000000    -0.707107     0.000000     0.000000     0.000000
    9    -1.000000     0.000000     1.000000     0.000000     0.000000     0.000000     0.201555     0.000000
   10    -1.000000    90.000000     0.000000     1.000000     0.000000     0.000000     0.201555     0.000000
   11     1.000000   180.000000     0.000000     0.000000     1.000000     0.000000     0.201555     0.000000
   12     1.000000   180.000000     0.707107     0.000000     0.707107     0.000000     0.201555     0.000000
   13     1.000000   180.000000     1.000000     0.000000     0.000000     0.000000     0.201555     0.000000
   14    -1.000000    90.000000     0.000000    -1.000000     0.000000     0.000000     0.201555     0.000000
   15    -1.000000   180.000000     0.000000     1.000000     0.000000     0.000000     0.201555     0.000000
   16     1.000000   180.000000     0.707107     0.000000    -0.707107     0.000000     0.201555     0.000000
 
 Subroutine IBZKPT returns following result:
 ===========================================
 
 Found      1 irreducible k-points:
 
 Following reciprocal coordinates:
            Coordinates               Weight
  0.000000  0.000000  0.000000      1.000000
 
 Following cartesian coordinates:
            Coordinates               Weight
  0.000000  0.000000  0.000000      1.000000
 


--------------------------------------------------------------------------------------------------------




 Dimension of arrays:
   k-points           NKPTS =      1   k-points in BZ     NKDIM =      1   number of bands    NBANDS=     20
   number of dos      NEDOS =    301   number of ions     NIONS =      6
   non local maximal  LDIM  =      4   non local SUM 2l+1 LMDIM =      8
   total plane-waves  NPLWV = ******
   max r-space proj   IRMAX =      1   max aug-charges    IRDMAX=  33660
   dimension x,y,z NGX =   480 NGY =  480 NGZ =  480
   dimension x,y,z NGXF=   960 NGYF=  960 NGZF=  960
   support grid    NGXF=   960 NGYF=  960 NGZF=  960
   ions per type =               2   4
   NGX,Y,Z   is equivalent  to a cutoff of  22.80, 22.80, 22.80 a.u.
   NGXF,Y,Z  is equivalent  to a cutoff of  45.60, 45.60, 45.60 a.u.

 SYSTEM =  C                                       
 POSCAR =   C  O                                   

 Startparameter for this run:
   NWRITE =      2    write-flag & timer
   PREC   = acc       normal or accurate (medium, high low for compatibility)
   ISTART =      0    job   : 0-new  1-cont  2-samecut
   ICHARG =      2    charge: 1-file 2-atom 10-const
   ISPIN  =      1    spin polarized calculation?
   LNONCOLLINEAR =      F non collinear calculations
   LSORBIT =      F    spin-orbit coupling
   INIWAV =      1    electr: 0-lowe 1-rand  2-diag
   LASPH  =      T    aspherical Exc in radial PAW
   METAGGA=      F    non-selfconsistent MetaGGA calc.

 Electronic Relaxation 1
   ENCUT  = 1600.0 eV 117.60 Ry   10.84 a.u. 114.15114.15114.15*2*pi/ulx,y,z
   ENINI  = 1600.0     initial cutoff
   ENAUG  =  644.9 eV  augmentation charge cutoff
   NELM   =     60;   NELMIN=  2; NELMDL= -5     # of ELM steps 
   EDIFF  = 0.1E-06   stopping-criterion for ELM
   LREAL  =      F    real-space projection
   NLSPLINE    = F    spline interpolate recip. space projectors
   LCOMPAT=      F    compatible to vasp.4.4
   GGA_COMPAT  = T    GGA compatible to vasp.4.4-vasp.4.6
   LMAXPAW     = -100 max onsite density
   LMAXMIX     =    2 max onsite mixed and CHGCAR
   VOSKOWN=      0    Vosko Wilk Nusair interpolation
   ROPT   =    0.00000   0.00000
 Ionic relaxation
   EDIFFG = 0.1E-05   stopping-criterion for IOM
   NSW    =      0    number of steps for IOM
   NBLOCK =      1;   KBLOCK =      1    inner block; outer block 
   IBRION =     -1    ionic relax: 0-MD 1-quasi-New 2-CG
   NFREE  =      0    steps in history (QN), initial steepest desc. (CG)
   ISIF   =      2    stress and relaxation
   IWAVPR =     10    prediction:  0-non 1-charg 2-wave 3-comb
   ISYM   =      2    0-nonsym 1-usesym 2-fastsym
   LCORR  =      T    Harris-Foulkes like correction to forces

   POTIM  = 0.5000    time-step for ionic-motion
   TEIN   =    0.0    initial temperature
   TEBEG  =    0.0;   TEEND  =   0.0 temperature during run
   SMASS  =  -3.00    Nose mass-parameter (am)
   estimated Nose-frequenzy (Omega)   =  0.10E-29 period in steps = 0.13E+47 mass=  -0.280E-25a.u.
   SCALEE = 1.0000    scale energy and forces
   NPACO  =    256;   APACO  = 16.0  distance and # of slots for P.C.
   PSTRESS=    0.0 pullay stress

  Mass of Ions in am
   POMASS =  12.01 16.00
  Ionic Valenz
   ZVAL   =   4.00  6.00
  Atomic Wigner-Seitz radii
   RWIGS  =  -1.00 -1.00
  virtual crystal weights 
   VCA    =   1.00  1.00
   NELECT =      32.0000    total number of electrons
   NUPDOWN=      -1.0000    fix difference up-down

 DOS related values:
   EMIN   =  10.00;   EMAX   =-10.00  energy-range for DOS
   EFERMI =   0.00
   ISMEAR =     0;   SIGMA  =   0.01  broadening in eV -4-tet -1-fermi 0-gaus

 Electronic relaxation 2 (details)
   IALGO  =     38    algorithm
   LDIAG  =      T    sub-space diagonalisation (order eigenvalues)
   LSUBROT=      F    optimize rotation matrix (better conditioning)
   TURBO    =      0    0=normal 1=particle mesh
   IRESTART =      0    0=no restart 2=restart with 2 vectors
   NREBOOT  =      0    no. of reboots
   NMIN     =      0    reboot dimension
   EREF     =   0.00    reference energy to select bands
   IMIX   =      4    mixing-type and parameters
     AMIX     =   0.40;   BMIX     =  1.00
     AMIX_MAG =   1.60;   BMIX_MAG =  1.00
     AMIN     =   0.10
     WC   =   100.;   INIMIX=   1;  MIXPRE=   1;  MAXMIX= -45

 Intra band minimization:
   WEIMIN = 0.0000     energy-eigenvalue tresh-hold
   EBREAK =  0.13E-08  absolut break condition
   DEPER  =   0.30     relativ break condition  

   TIME   =   0.40     timestep for ELM

  volume/ion in A,a.u.               =    7145.83     48222.46
  Fermi-wavevector in a.u.,A,eV,Ry     =   0.148499  0.280622  0.300035  0.022052
  Thomas-Fermi vector in A             =   0.821704
 
 Write flags
   LWAVE        =      T    write WAVECAR
   LDOWNSAMPLE  =      F    k-point downsampling of WAVECAR
   LCHARG       =      T    write CHGCAR
   LVTOT        =      F    write LOCPOT, total local potential
   LVHAR        =      F    write LOCPOT, Hartree potential only
   LELF         =      F    write electronic localiz. function (ELF)
   LORBIT       =      0    0 simple, 1 ext, 2 COOP (PROOUT), +10 PAW based schemes


 Dipole corrections
   LMONO  =      F    monopole corrections only (constant potential shift)
   LDIPOL =      F    correct potential (dipole corrections)
   IDIPOL =      4    1-x, 2-y, 3-z, 4-all directions 
   EPSILON=  1.0000000 bulk dielectric constant

 Exchange correlation treatment:
   GGA     =    --    GGA type
   LEXCH   =     8    internal setting for exchange type
   VOSKOWN=      0    Vosko Wilk Nusair interpolation
   LHFCALC =     F    Hartree Fock is set to
   LHFONE  =     F    Hartree Fock one center treatment
   AEXX    =    0.0000 exact exchange contribution

 Linear response parameters
   LEPSILON=     F    determine dielectric tensor
   LRPA    =     F    only Hartree local field effects (RPA)
   LNABLA  =     F    use nabla operator in PAW spheres
   LVEL    =     F    velocity operator in full k-point grid
   LINTERFAST=   F  fast interpolation
   KINTER  =     0    interpolate to denser k-point grid
   CSHIFT  =0.1000    complex shift for real part using Kramers Kronig
   OMEGAMAX=  -1.0    maximum frequency
   DEG_THRESHOLD= 0.2000000E-02 threshold for treating states as degnerate
   RTIME   =   -0.100 relaxation time in fs
  (WPLASMAI=    0.000 imaginary part of plasma frequency in eV, 0.658/RTIME)
   DFIELD  = 0.0000000 0.0000000 0.0000000 field for delta impulse in time
 
 Orbital magnetization related:
   ORBITALMAG=     F  switch on orbital magnetization
   LCHIMAG   =     F  perturbation theory with respect to B field
   DQ        =  0.001000  dq finite difference perturbation B field
   LLRAUG    =     F  two centre corrections for induced B field



--------------------------------------------------------------------------------------------------------


 Static calculation
 charge density and potential will be updated during run
 non-spin polarized calculation
 Variant of blocked Davidson
 Davidson routine will perform the subspace rotation
 perform sub-space diagonalisation
    after iterative eigenvector-optimisation
 modified Broyden-mixing scheme, WC =      100.0
 initial mixing is a Kerker type mixing with AMIX =  0.4000 and BMIX =      1.0000
 Hartree-type preconditioning will be used
 using additional bands             4
 reciprocal scheme for non local part
 use partial core corrections
 calculate Harris-corrections to forces 
   (improved forces if not selfconsistent)
 use gradient corrections 
 use of overlap-Matrix (Vanderbilt PP)
 Gauss-broadening in eV      SIGMA  =   0.01


--------------------------------------------------------------------------------------------------------


  energy-cutoff  :     1600.00
  volume of cell :    42875.00
      direct lattice vectors                 reciprocal lattice vectors
    35.000000000  0.000000000  0.000000000     0.028571429  0.000000000  0.000000000
     0.000000000 35.000000000  0.000000000     0.000000000  0.028571429  0.000000000
     0.000000000  0.000000000 35.000000000     0.000000000  0.000000000  0.028571429

  length of vectors
    35.000000000 35.000000000 35.000000000     0.028571429  0.028571429  0.028571429


 
 k-points in units of 2pi/SCALE and weight: automatic mesh                          
   0.00000000  0.00000000  0.00000000       1.000
 
 k-points in reciprocal lattice and weights: automatic mesh                          
   0.00000000  0.00000000  0.00000000       1.000
 
 position of ions in fractional coordinates (direct lattice) 
   0.00000000  0.00162817  0.00000000
   0.00000000  0.19992646  0.00000000
   0.00000000  0.03506303  0.00000000
   0.00000000  0.96819331  0.00000000
   0.00000000  0.16649160  0.00000000
   0.00000000  0.23336131  0.00000000
 
 position of ions in cartesian coordinates  (Angst):
   0.00000000  0.05698600  0.00000000
   0.00000000  6.99742600  0.00000000
   0.00000000  1.22720600  0.00000000
   0.00000000 33.88676600  0.00000000
   0.00000000  5.82720600  0.00000000
   0.00000000  8.16764600  0.00000000
 


--------------------------------------------------------------------------------------------------------


 use parallel FFT for orbitals z direction half grid
 k-point   1 :   0.0000 0.0000 0.0000  plane waves: 3115599

 maximum and minimum number of plane-waves per node :    389462   389421

 maximum number of plane-waves:   3115599
 maximum index in each direction: 
   IXMAX=  114   IYMAX=  114   IZMAX=  114
   IXMIN= -114   IYMIN= -114   IZMIN=    0


 parallel 3D FFT for wavefunctions:
    minimum data exchange during FFTs selected (reduces bandwidth)
 parallel 3D FFT for charge:
    minimum data exchange during FFTs selected (reduces bandwidth)


 total amount of memory used by VASP MPI-rank0  5977588. kBytes
=======================================================================

   base      :      30000. kBytes
   nonl-proj :      87230. kBytes
   fftplans  :    2143445. kBytes
   grid      :    3654604. kBytes
   one-center:          1. kBytes
   wavefun   :      62308. kBytes
 
     INWAV:  cpu time    0.0000: real time    0.0000
 Broyden mixing: mesh for mixing (old mesh)
   NGX =229   NGY =229   NGZ =229
  (NGX  =960   NGY  =960   NGZ  =960)
  gives a total of ****** points

 initial charge density was supplied:
 charge density of overlapping atoms calculated
 number of electron      32.0000000 magnetization 
 keeping initial charge density in first step


--------------------------------------------------------------------------------------------------------


 Maximum index for augmentation-charges          2082 (set IRDMAX)


--------------------------------------------------------------------------------------------------------


 First call to EWALD:  gamma=   0.051
 Maximum number of real-space cells 3x 3x 3
 Maximum number of reciprocal cells 3x 3x 3

    FEWALD:  cpu time    0.0006: real time    0.0006


--------------------------------------- Iteration      1(   1)  ---------------------------------------


    POTLOK:  cpu time   34.7719: real time   34.8070
    SETDIJ:  cpu time    0.0632: real time    0.0650
     EDDAV:  cpu time   24.6294: real time   24.6819
       DOS:  cpu time    0.0098: real time    0.0098
    --------------------------------------------
      LOOP:  cpu time   59.4742: real time   59.5636

 eigenvalue-minimisations  :    56
 total energy-change (2. order) : 0.3521948E+03  (-0.6549283E+03)
 number of electron      32.0000000 magnetization 
 augmentation part       32.0000000 magnetization 

 Free energy of the ion-electron system (eV)
  ---------------------------------------------------
  alpha Z        PSCENC =         0.09979497
  Ewald energy   TEWEN  =      1592.81084052
  -Hartree energ DENC   =     -3203.19990156
  -exchange      EXHF   =         0.00000000
  -V(xc)+E(xc)   XCENC  =       135.14755736
  PAW double counting   =      1603.24200032    -1611.57549460
  entropy T*S    EENTRO =        -0.00000000
  eigenvalues    EBANDS =      -188.15480605
  atomic energy  EATOM  =      2023.82482173
  Solvation  Ediel_sol  =         0.00000000
  ---------------------------------------------------
  free energy    TOTEN  =       352.19481268 eV

  energy without entropy =      352.19481268  energy(sigma->0) =      352.19481268


--------------------------------------------------------------------------------------------------------




--------------------------------------- Iteration      1(   2)  ---------------------------------------


     EDDAV:  cpu time   29.8652: real time   29.9026
       DOS:  cpu time    0.0023: real time    0.0023
    --------------------------------------------
      LOOP:  cpu time   29.8675: real time   29.9048

 eigenvalue-minimisations  :    72
 total energy-change (2. order) :-0.1929304E+03  (-0.1927189E+03)
 number of electron      32.0000000 magnetization 
 augmentation part       32.0000000 magnetization 

 Free energy of the ion-electron system (eV)
  ---------------------------------------------------
  alpha Z        PSCENC =         0.09979497
  Ewald energy   TEWEN  =      1592.81084052
  -Hartree energ DENC   =     -3203.19990156
  -exchange      EXHF   =         0.00000000
  -V(xc)+E(xc)   XCENC  =       135.14755736
  PAW double counting   =      1603.24200032    -1611.57549460
  entropy T*S    EENTRO =        -0.00000000
  eigenvalues    EBANDS =      -381.08523313
  atomic energy  EATOM  =      2023.82482173
  Solvation  Ediel_sol  =         0.00000000
  ---------------------------------------------------
  free energy    TOTEN  =       159.26438561 eV

  energy without entropy =      159.26438561  energy(sigma->0) =      159.26438561


--------------------------------------------------------------------------------------------------------




--------------------------------------- Iteration      1(   3)  ---------------------------------------


     EDDAV:  cpu time   27.0975: real time   27.1296
       DOS:  cpu time    0.0029: real time    0.0029
    --------------------------------------------
      LOOP:  cpu time   27.1004: real time   27.1325

 eigenvalue-minimisations  :    64
 total energy-change (2. order) :-0.1335947E+03  (-0.1312331E+03)
 number of electron      32.0000000 magnetization 
 augmentation part       32.0000000 magnetization 

 Free energy of the ion-electron system (eV)
  ---------------------------------------------------
  alpha Z        PSCENC =         0.09979497
  Ewald energy   TEWEN  =      1592.81084052
  -Hartree energ DENC   =     -3203.19990156
  -exchange      EXHF   =         0.00000000
  -V(xc)+E(xc)   XCENC  =       135.14755736
  PAW double counting   =      1603.24200032    -1611.57549460
  entropy T*S    EENTRO =        -0.00000002
  eigenvalues    EBANDS =      -514.67988546
  atomic energy  EATOM  =      2023.82482173
  Solvation  Ediel_sol  =         0.00000000
  ---------------------------------------------------
  free energy    TOTEN  =        25.66973326 eV

  energy without entropy =       25.66973328  energy(sigma->0) =       25.66973327


--------------------------------------------------------------------------------------------------------




--------------------------------------- Iteration      1(   4)  ---------------------------------------


     EDDAV:  cpu time   22.0944: real time   22.1275
       DOS:  cpu time    0.0010: real time    0.0010
    --------------------------------------------
      LOOP:  cpu time   22.0954: real time   22.1286

 eigenvalue-minimisations  :    48
 total energy-change (2. order) :-0.6548737E+02  (-0.4964358E+02)
 number of electron      32.0000000 magnetization 
 augmentation part       32.0000000 magnetization 

 Free energy of the ion-electron system (eV)
  ---------------------------------------------------
  alpha Z        PSCENC =         0.09979497
  Ewald energy   TEWEN  =      1592.81084052
  -Hartree energ DENC   =     -3203.19990156
  -exchange      EXHF   =         0.00000000
  -V(xc)+E(xc)   XCENC  =       135.14755736
  PAW double counting   =      1603.24200032    -1611.57549460
  entropy T*S    EENTRO =        -0.00000000
  eigenvalues    EBANDS =      -580.16725215
  atomic energy  EATOM  =      2023.82482173
  Solvation  Ediel_sol  =         0.00000000
  ---------------------------------------------------
  free energy    TOTEN  =       -39.81763341 eV

  energy without entropy =      -39.81763341  energy(sigma->0) =      -39.81763341


--------------------------------------------------------------------------------------------------------




--------------------------------------- Iteration      1(   5)  ---------------------------------------


     EDDAV:  cpu time   22.1232: real time   22.1523
       DOS:  cpu time    0.0019: real time    0.0019
    CHARGE:  cpu time   20.7290: real time   20.7451
    MIXING:  cpu time    0.7665: real time    0.7702
    --------------------------------------------
      LOOP:  cpu time   43.6206: real time   43.6695

 eigenvalue-minimisations  :    48
 total energy-change (2. order) :-0.9579817E+01  (-0.9573201E+01)
 number of electron      31.9999999 magnetization 
 augmentation part        3.0264212 magnetization 

 Broyden mixing:
  rms(total) = 0.13236E+01    rms(broyden)= 0.13236E+01
  rms(prec ) = 0.13507E+01
  weight for this iteration     100.00

 Free energy of the ion-electron system (eV)
  ---------------------------------------------------
  alpha Z        PSCENC =         0.09979497
  Ewald energy   TEWEN  =      1592.81084052
  -Hartree energ DENC   =     -3203.19990156
  -exchange      EXHF   =         0.00000000
  -V(xc)+E(xc)   XCENC  =       135.14755736
  PAW double counting   =      1603.24200032    -1611.57549460
  entropy T*S    EENTRO =        -0.00000000
  eigenvalues    EBANDS =      -589.74706905
  atomic energy  EATOM  =      2023.82482173
  Solvation  Ediel_sol  =         0.00000000
  ---------------------------------------------------
  free energy    TOTEN  =       -49.39745031 eV

  energy without entropy =      -49.39745031  energy(sigma->0) =      -49.39745031


--------------------------------------------------------------------------------------------------------




--------------------------------------- Iteration      1(   6)  ---------------------------------------


    POTLOK:  cpu time   34.8152: real time   34.8478
    SETDIJ:  cpu time    0.0453: real time    0.0453
     EDDAV:  cpu time   20.7381: real time   20.7629
       DOS:  cpu time    0.0002: real time    0.0002
    CHARGE:  cpu time   20.4822: real time   20.4981
    MIXING:  cpu time    0.8473: real time    0.8531
    --------------------------------------------
      LOOP:  cpu time   76.9283: real time   77.0074

 eigenvalue-minimisations  :    44
 total energy-change (2. order) : 0.3062247E+01  (-0.1718909E+01)
 number of electron      31.9999999 magnetization 
 augmentation part        2.6705711 magnetization 

 Broyden mixing:
  rms(total) = 0.60383E+00    rms(broyden)= 0.60383E+00
  rms(prec ) = 0.60907E+00
  weight for this iteration     100.00

 eigenvalues of (default mixing * dielectric matrix)
  average eigenvalue GAMMA=   1.0588
  1.0588

 Free energy of the ion-electron system (eV)
  ---------------------------------------------------
  alpha Z        PSCENC =         0.09979497
  Ewald energy   TEWEN  =      1592.81084052
  -Hartree energ DENC   =     -3255.53633640
  -exchange      EXHF   =         0.00000000
  -V(xc)+E(xc)   XCENC  =       138.25833474
  PAW double counting   =      2132.93581561    -2142.07016456
  entropy T*S    EENTRO =        -0.00000000
  eigenvalues    EBANDS =      -536.65831014
  atomic energy  EATOM  =      2023.82482173
  Solvation  Ediel_sol  =         0.00000000
  ---------------------------------------------------
  free energy    TOTEN  =       -46.33520354 eV

  energy without entropy =      -46.33520354  energy(sigma->0) =      -46.33520354


--------------------------------------------------------------------------------------------------------




--------------------------------------- Iteration      1(   7)  ---------------------------------------


    POTLOK:  cpu time   34.8328: real time   34.8676
    SETDIJ:  cpu time    0.0796: real time    0.0796
     EDDAV:  cpu time   22.1113: real time   22.1373
       DOS:  cpu time    0.0002: real time    0.0002
    CHARGE:  cpu time   20.5222: real time   20.5396
    MIXING:  cpu time    0.8176: real time    0.8184
    --------------------------------------------
      LOOP:  cpu time   78.3635: real time   78.4426

 eigenvalue-minimisations  :    48
 total energy-change (2. order) : 0.2502632E+00  (-0.4336357E-01)
 number of electron      31.9999999 magnetization 
 augmentation part        2.6952511 magnetization 

 Broyden mixing:
  rms(total) = 0.33302E+00    rms(broyden)= 0.33302E+00
  rms(prec ) = 0.33628E+00
  weight for this iteration     100.00

 eigenvalues of (default mixing * dielectric matrix)
  average eigenvalue GAMMA=   1.6740
  0.9727  2.3753

 Free energy of the ion-electron system (eV)
  ---------------------------------------------------
  alpha Z        PSCENC =         0.09979497
  Ewald energy   TEWEN  =      1592.81084052
  -Hartree energ DENC   =     -3266.09207617
  -exchange      EXHF   =         0.00000000
  -V(xc)+E(xc)   XCENC  =       138.71071761
  PAW double counting   =      2509.80018576    -2518.79636129
  entropy T*S    EENTRO =        -0.00000000
  eigenvalues    EBANDS =      -526.44286344
  atomic energy  EATOM  =      2023.82482173
  Solvation  Ediel_sol  =         0.00000000
  ---------------------------------------------------
  free energy    TOTEN  =       -46.08494031 eV

  energy without entropy =      -46.08494031  energy(sigma->0) =      -46.08494031


--------------------------------------------------------------------------------------------------------




--------------------------------------- Iteration      1(   8)  ---------------------------------------


    POTLOK:  cpu time   34.8821: real time   34.9200
    SETDIJ:  cpu time    0.0573: real time    0.0574
     EDDAV:  cpu time   22.1869: real time   22.2183
       DOS:  cpu time    0.0047: real time    0.0047
    CHARGE:  cpu time   20.4290: real time   20.4450
    MIXING:  cpu time    0.9011: real time    0.9094
    --------------------------------------------
      LOOP:  cpu time   78.4610: real time   78.5547

 eigenvalue-minimisations  :    48
 total energy-change (2. order) : 0.1055751E+00  (-0.5451011E-01)
 number of electron      31.9999999 magnetization 
 augmentation part        2.6892829 magnetization 

 Broyden mixing:
  rms(total) = 0.79979E-01    rms(broyden)= 0.79979E-01
  rms(prec ) = 0.82421E-01
  weight for this iteration     100.00

 eigenvalues of (default mixing * dielectric matrix)
  average eigenvalue GAMMA=   1.1664
  2.3860  0.9704  0.1427

 Free energy of the ion-electron system (eV)
  ---------------------------------------------------
  alpha Z        PSCENC =         0.09979497
  Ewald energy   TEWEN  =      1592.81084052
  -Hartree energ DENC   =     -3282.54272434
  -exchange      EXHF   =         0.00000000
  -V(xc)+E(xc)   XCENC  =       139.49219584
  PAW double counting   =      3072.17583275    -3081.16613631
  entropy T*S    EENTRO =        -0.00000000
  eigenvalues    EBANDS =      -510.67399032
  atomic energy  EATOM  =      2023.82482173
  Solvation  Ediel_sol  =         0.00000000
  ---------------------------------------------------
  free energy    TOTEN  =       -45.97936517 eV

  energy without entropy =      -45.97936517  energy(sigma->0) =      -45.97936517


--------------------------------------------------------------------------------------------------------




--------------------------------------- Iteration      1(   9)  ---------------------------------------


    POTLOK:  cpu time   34.8848: real time   34.9172
    SETDIJ:  cpu time    0.0479: real time    0.0479
     EDDAV:  cpu time   22.0615: real time   22.0921
       DOS:  cpu time    0.0151: real time    0.0151
    CHARGE:  cpu time   20.5107: real time   20.5298
    MIXING:  cpu time    0.8760: real time    0.8768
    --------------------------------------------
      LOOP:  cpu time   78.3960: real time   78.4789

 eigenvalue-minimisations  :    48
 total energy-change (2. order) : 0.1421623E-02  (-0.1901217E-02)
 number of electron      31.9999999 magnetization 
 augmentation part        2.6890717 magnetization 

 Broyden mixing:
  rms(total) = 0.73365E-01    rms(broyden)= 0.73365E-01
  rms(prec ) = 0.75755E-01
  weight for this iteration     100.00

 eigenvalues of (default mixing * dielectric matrix)
  average eigenvalue GAMMA=   1.2075
  2.4227  0.9490  0.7292  0.7292

 Free energy of the ion-electron system (eV)
  ---------------------------------------------------
  alpha Z        PSCENC =         0.09979497
  Ewald energy   TEWEN  =      1592.81084052
  -Hartree energ DENC   =     -3282.57227165
  -exchange      EXHF   =         0.00000000
  -V(xc)+E(xc)   XCENC  =       139.49507322
  PAW double counting   =      3077.78978459    -3086.77763627
  entropy T*S    EENTRO =        -0.00000000
  eigenvalues    EBANDS =      -510.64835065
  atomic energy  EATOM  =      2023.82482173
  Solvation  Ediel_sol  =         0.00000000
  ---------------------------------------------------
  free energy    TOTEN  =       -45.97794354 eV

  energy without entropy =      -45.97794354  energy(sigma->0) =      -45.97794354


--------------------------------------------------------------------------------------------------------




--------------------------------------- Iteration      1(  10)  ---------------------------------------


    POTLOK:  cpu time   34.9364: real time   34.9689
    SETDIJ:  cpu time    0.0670: real time    0.0670
     EDDAV:  cpu time   22.1398: real time   22.1714
       DOS:  cpu time    0.0026: real time    0.0026
    CHARGE:  cpu time   20.5162: real time   20.5325
    MIXING:  cpu time    0.8638: real time    0.8693
    --------------------------------------------
      LOOP:  cpu time   78.5258: real time   78.6117

 eigenvalue-minimisations  :    48
 total energy-change (2. order) : 0.7725737E-02  (-0.3219664E-02)
 number of electron      31.9999999 magnetization 
 augmentation part        2.6743312 magnetization 

 Broyden mixing:
  rms(total) = 0.48256E-01    rms(broyden)= 0.48256E-01
  rms(prec ) = 0.49569E-01
  weight for this iteration     100.00

 eigenvalues of (default mixing * dielectric matrix)
  average eigenvalue GAMMA=   1.3864
  2.3776  1.8980  0.9947  0.9947  0.6671

 Free energy of the ion-electron system (eV)
  ---------------------------------------------------
  alpha Z        PSCENC =         0.09979497
  Ewald energy   TEWEN  =      1592.81084052
  -Hartree energ DENC   =     -3283.77196099
  -exchange      EXHF   =         0.00000000
  -V(xc)+E(xc)   XCENC  =       139.56625933
  PAW double counting   =      3096.55029575    -3105.50814797
  entropy T*S    EENTRO =        -0.00000000
  eigenvalues    EBANDS =      -509.54212115
  atomic energy  EATOM  =      2023.82482173
  Solvation  Ediel_sol  =         0.00000000
  ---------------------------------------------------
  free energy    TOTEN  =       -45.97021781 eV

  energy without entropy =      -45.97021781  energy(sigma->0) =      -45.97021781


--------------------------------------------------------------------------------------------------------




--------------------------------------- Iteration      1(  11)  ---------------------------------------


    POTLOK:  cpu time   34.9078: real time   34.9471
    SETDIJ:  cpu time    0.0522: real time    0.0522
     EDDAV:  cpu time   21.9937: real time   22.0214
       DOS:  cpu time    0.0157: real time    0.0157
    CHARGE:  cpu time   20.4808: real time   20.4966
    MIXING:  cpu time    0.9087: real time    0.9097
    --------------------------------------------
      LOOP:  cpu time   78.3589: real time   78.4427

 eigenvalue-minimisations  :    48
 total energy-change (2. order) :-0.2673480E-02  (-0.2099412E-02)
 number of electron      31.9999999 magnetization 
 augmentation part        2.6733575 magnetization 

 Broyden mixing:
  rms(total) = 0.22014E-01    rms(broyden)= 0.22014E-01
  rms(prec ) = 0.22667E-01
  weight for this iteration     100.00

 eigenvalues of (default mixing * dielectric matrix)
  average eigenvalue GAMMA=   1.4448
  2.5493  2.2544  1.2056  0.9715  0.9715  0.7162

 Free energy of the ion-electron system (eV)
  ---------------------------------------------------
  alpha Z        PSCENC =         0.09979497
  Ewald energy   TEWEN  =      1592.81084052
  -Hartree energ DENC   =     -3283.41034037
  -exchange      EXHF   =         0.00000000
  -V(xc)+E(xc)   XCENC  =       139.51733717
  PAW double counting   =      3109.53507113    -3118.39962355
  entropy T*S    EENTRO =        -0.00000000
  eigenvalues    EBANDS =      -509.95079288
  atomic energy  EATOM  =      2023.82482173
  Solvation  Ediel_sol  =         0.00000000
  ---------------------------------------------------
  free energy    TOTEN  =       -45.97289129 eV

  energy without entropy =      -45.97289129  energy(sigma->0) =      -45.97289129


--------------------------------------------------------------------------------------------------------




--------------------------------------- Iteration      1(  12)  ---------------------------------------


    POTLOK:  cpu time   34.9249: real time   34.9615
    SETDIJ:  cpu time    0.0429: real time    0.0429
     EDDAV:  cpu time   27.1920: real time   27.2246
       DOS:  cpu time    0.0140: real time    0.0140
    CHARGE:  cpu time   20.5633: real time   20.5799
    MIXING:  cpu time    0.9594: real time    0.9603
    --------------------------------------------
      LOOP:  cpu time   83.6965: real time   83.7832

 eigenvalue-minimisations  :    64
 total energy-change (2. order) :-0.4046030E-02  (-0.2010534E-03)
 number of electron      31.9999999 magnetization 
 augmentation part        2.6729042 magnetization 

 Broyden mixing:
  rms(total) = 0.21201E-01    rms(broyden)= 0.21201E-01
  rms(prec ) = 0.21823E-01
  weight for this iteration     100.00

 eigenvalues of (default mixing * dielectric matrix)
  average eigenvalue GAMMA=   1.4613
  2.3324  2.3324  1.4103  1.4103  1.0150  1.0150  0.7138

 Free energy of the ion-electron system (eV)
  ---------------------------------------------------
  alpha Z        PSCENC =         0.09979497
  Ewald energy   TEWEN  =      1592.81084052
  -Hartree energ DENC   =     -3283.72125023
  -exchange      EXHF   =         0.00000000
  -V(xc)+E(xc)   XCENC  =       139.51131525
  PAW double counting   =      3113.92132550    -3122.80620351
  entropy T*S    EENTRO =        -0.00000000
  eigenvalues    EBANDS =      -509.61758155
  atomic energy  EATOM  =      2023.82482173
  Solvation  Ediel_sol  =         0.00000000
  ---------------------------------------------------
  free energy    TOTEN  =       -45.97693732 eV

  energy without entropy =      -45.97693732  energy(sigma->0) =      -45.97693732


--------------------------------------------------------------------------------------------------------




--------------------------------------- Iteration      1(  13)  ---------------------------------------


    POTLOK:  cpu time   34.9451: real time   34.9828
    SETDIJ:  cpu time    0.0458: real time    0.0459
     EDDAV:  cpu time   22.1036: real time   22.1334
       DOS:  cpu time    0.0014: real time    0.0014
    CHARGE:  cpu time   20.5025: real time   20.5184
    MIXING:  cpu time    0.9269: real time    0.9278
    --------------------------------------------
      LOOP:  cpu time   78.5254: real time   78.6098

 eigenvalue-minimisations  :    48
 total energy-change (2. order) :-0.2928326E-02  (-0.4573637E-03)
 number of electron      31.9999999 magnetization 
 augmentation part        2.6791937 magnetization 

 Broyden mixing:
  rms(total) = 0.29038E-02    rms(broyden)= 0.29038E-02
  rms(prec ) = 0.35976E-02
  weight for this iteration     100.00

 eigenvalues of (default mixing * dielectric matrix)
  average eigenvalue GAMMA=   1.5733
  3.4147  2.3417  1.4280  1.4280  1.3743  0.9446  0.9446  0.7100

 Free energy of the ion-electron system (eV)
  ---------------------------------------------------
  alpha Z        PSCENC =         0.09979497
  Ewald energy   TEWEN  =      1592.81084052
  -Hartree energ DENC   =     -3283.57187870
  -exchange      EXHF   =         0.00000000
  -V(xc)+E(xc)   XCENC  =       139.47472607
  PAW double counting   =      3106.71847529    -3115.63599924
  entropy T*S    EENTRO =        -0.00000000
  eigenvalues    EBANDS =      -509.70064628
  atomic energy  EATOM  =      2023.82482173
  Solvation  Ediel_sol  =         0.00000000
  ---------------------------------------------------
  free energy    TOTEN  =       -45.97986564 eV

  energy without entropy =      -45.97986564  energy(sigma->0) =      -45.97986564


--------------------------------------------------------------------------------------------------------




--------------------------------------- Iteration      1(  14)  ---------------------------------------


    POTLOK:  cpu time   34.9602: real time   34.9936
    SETDIJ:  cpu time    0.0457: real time    0.0458
     EDDAV:  cpu time   22.1694: real time   22.2022
       DOS:  cpu time    0.0005: real time    0.0005
    CHARGE:  cpu time   20.5349: real time   20.5514
    MIXING:  cpu time    0.9510: real time    0.9520
    --------------------------------------------
      LOOP:  cpu time   78.6617: real time   78.7455

 eigenvalue-minimisations  :    48
 total energy-change (2. order) :-0.2345375E-02  (-0.5238763E-04)
 number of electron      31.9999999 magnetization 
 augmentation part        2.6785133 magnetization 

 Broyden mixing:
  rms(total) = 0.44546E-02    rms(broyden)= 0.44546E-02
  rms(prec ) = 0.46879E-02
  weight for this iteration     100.00

 eigenvalues of (default mixing * dielectric matrix)
  average eigenvalue GAMMA=   1.5284
  3.5516  2.3646  2.0448  1.2063  1.2063  0.9842  0.9842  0.7068  0.7068

 Free energy of the ion-electron system (eV)
  ---------------------------------------------------
  alpha Z        PSCENC =         0.09979497
  Ewald energy   TEWEN  =      1592.81084052
  -Hartree energ DENC   =     -3284.03091477
  -exchange      EXHF   =         0.00000000
  -V(xc)+E(xc)   XCENC  =       139.48078667
  PAW double counting   =      3109.13164879    -3118.05773744
  entropy T*S    EENTRO =        -0.00000000
  eigenvalues    EBANDS =      -509.24145148
  atomic energy  EATOM  =      2023.82482173
  Solvation  Ediel_sol  =         0.00000000
  ---------------------------------------------------
  free energy    TOTEN  =       -45.98221102 eV

  energy without entropy =      -45.98221102  energy(sigma->0) =      -45.98221102


--------------------------------------------------------------------------------------------------------




--------------------------------------- Iteration      1(  15)  ---------------------------------------


    POTLOK:  cpu time   34.9387: real time   34.9718
    SETDIJ:  cpu time    0.0549: real time    0.0549
     EDDAV:  cpu time   22.1191: real time   22.1540
       DOS:  cpu time    0.0190: real time    0.0190
    CHARGE:  cpu time   20.5260: real time   20.5482
    MIXING:  cpu time    1.0078: real time    1.0089
    --------------------------------------------
      LOOP:  cpu time   78.6655: real time   78.7567

 eigenvalue-minimisations  :    48
 total energy-change (2. order) :-0.1311490E-02  (-0.2931015E-04)
 number of electron      31.9999999 magnetization 
 augmentation part        2.6795827 magnetization 

 Broyden mixing:
  rms(total) = 0.68495E-02    rms(broyden)= 0.68495E-02
  rms(prec ) = 0.70560E-02
  weight for this iteration     100.00

 eigenvalues of (default mixing * dielectric matrix)
  average eigenvalue GAMMA=   1.7176
  4.4810  2.5965  2.1120  2.1120  1.1636  1.1636  0.7125  0.9283  0.9531  0.9531

 Free energy of the ion-electron system (eV)
  ---------------------------------------------------
  alpha Z        PSCENC =         0.09979497
  Ewald energy   TEWEN  =      1592.81084052
  -Hartree energ DENC   =     -3284.20585765
  -exchange      EXHF   =         0.00000000
  -V(xc)+E(xc)   XCENC  =       139.47893644
  PAW double counting   =      3107.23827684    -3116.16666884
  entropy T*S    EENTRO =        -0.00000000
  eigenvalues    EBANDS =      -509.06366651
  atomic energy  EATOM  =      2023.82482173
  Solvation  Ediel_sol  =         0.00000000
  ---------------------------------------------------
  free energy    TOTEN  =       -45.98352251 eV

  energy without entropy =      -45.98352251  energy(sigma->0) =      -45.98352251


--------------------------------------------------------------------------------------------------------




--------------------------------------- Iteration      1(  16)  ---------------------------------------


    POTLOK:  cpu time   34.8635: real time   34.9010
    SETDIJ:  cpu time    0.0472: real time    0.0472
     EDDAV:  cpu time   22.0741: real time   22.1055
       DOS:  cpu time    0.0037: real time    0.0037
    CHARGE:  cpu time   20.5292: real time   20.5536
    MIXING:  cpu time    1.0097: real time    1.0135
    --------------------------------------------
      LOOP:  cpu time   78.5275: real time   78.6245

 eigenvalue-minimisations  :    48
 total energy-change (2. order) :-0.1443465E-02  (-0.5561330E-04)
 number of electron      31.9999999 magnetization 
 augmentation part        2.6775161 magnetization 

 Broyden mixing:
  rms(total) = 0.12605E-02    rms(broyden)= 0.12605E-02
  rms(prec ) = 0.13795E-02
  weight for this iteration     100.00

 eigenvalues of (default mixing * dielectric matrix)
  average eigenvalue GAMMA=   1.7088
  5.2122  2.8332  2.3509  1.5323  1.5323  1.1031  0.7100  0.9376  0.9376  0.8239
  0.8239

 Free energy of the ion-electron system (eV)
  ---------------------------------------------------
  alpha Z        PSCENC =         0.09979497
  Ewald energy   TEWEN  =      1592.81084052
  -Hartree energ DENC   =     -3284.71147499
  -exchange      EXHF   =         0.00000000
  -V(xc)+E(xc)   XCENC  =       139.49423884
  PAW double counting   =      3107.00030142    -3115.91106106
  entropy T*S    EENTRO =        -0.00000000
  eigenvalues    EBANDS =      -508.59242740
  atomic energy  EATOM  =      2023.82482173
  Solvation  Ediel_sol  =         0.00000000
  ---------------------------------------------------
  free energy    TOTEN  =       -45.98496597 eV

  energy without entropy =      -45.98496597  energy(sigma->0) =      -45.98496597


--------------------------------------------------------------------------------------------------------




--------------------------------------- Iteration      1(  17)  ---------------------------------------


    POTLOK:  cpu time   34.8595: real time   34.8927
    SETDIJ:  cpu time    0.0481: real time    0.0481
     EDDAV:  cpu time   22.1754: real time   22.2133
       DOS:  cpu time    0.0009: real time    0.0009
    CHARGE:  cpu time   20.5435: real time   20.5644
    MIXING:  cpu time    1.0632: real time    1.0643
    --------------------------------------------
      LOOP:  cpu time   78.6905: real time   78.7837

 eigenvalue-minimisations  :    48
 total energy-change (2. order) :-0.3798848E-03  (-0.5383239E-05)
 number of electron      31.9999999 magnetization 
 augmentation part        2.6778149 magnetization 

 Broyden mixing:
  rms(total) = 0.11741E-02    rms(broyden)= 0.11741E-02
  rms(prec ) = 0.12627E-02
  weight for this iteration     100.00

 eigenvalues of (default mixing * dielectric matrix)
  average eigenvalue GAMMA=   1.7520
  5.7937  2.9560  2.2353  1.7200  1.4928  1.4928  0.9847  0.9847  0.9346  0.9346
  0.7114  0.7838

 Free energy of the ion-electron system (eV)
  ---------------------------------------------------
  alpha Z        PSCENC =         0.09979497
  Ewald energy   TEWEN  =      1592.81084052
  -Hartree energ DENC   =     -3284.79932856
  -exchange      EXHF   =         0.00000000
  -V(xc)+E(xc)   XCENC  =       139.49447235
  PAW double counting   =      3106.97981273    -3115.89175630
  entropy T*S    EENTRO =        -0.00000000
  eigenvalues    EBANDS =      -508.50400330
  atomic energy  EATOM  =      2023.82482173
  Solvation  Ediel_sol  =         0.00000000
  ---------------------------------------------------
  free energy    TOTEN  =       -45.98534586 eV

  energy without entropy =      -45.98534586  energy(sigma->0) =      -45.98534586


--------------------------------------------------------------------------------------------------------




--------------------------------------- Iteration      1(  18)  ---------------------------------------


    POTLOK:  cpu time   34.8319: real time   34.8652
    SETDIJ:  cpu time    0.0517: real time    0.0517
     EDDAV:  cpu time   22.1196: real time   22.1469
       DOS:  cpu time    0.0071: real time    0.0071
    CHARGE:  cpu time   20.5732: real time   20.5925
    MIXING:  cpu time    1.0795: real time    1.0807
    --------------------------------------------
      LOOP:  cpu time   78.6629: real time   78.7441

 eigenvalue-minimisations  :    48
 total energy-change (2. order) :-0.5368617E-03  (-0.4242962E-05)
 number of electron      31.9999999 magnetization 
 augmentation part        2.6774518 magnetization 

 Broyden mixing:
  rms(total) = 0.11950E-02    rms(broyden)= 0.11950E-02
  rms(prec ) = 0.12403E-02
  weight for this iteration     100.00

 eigenvalues of (default mixing * dielectric matrix)
  average eigenvalue GAMMA=   1.8100
  6.4053  3.0703  2.3357  2.3357  1.6283  1.6283  0.9855  0.9855  0.8683  0.8683
  0.7112  0.8537  0.8537

 Free energy of the ion-electron system (eV)
  ---------------------------------------------------
  alpha Z        PSCENC =         0.09979497
  Ewald energy   TEWEN  =      1592.81084052
  -Hartree energ DENC   =     -3284.84278113
  -exchange      EXHF   =         0.00000000
  -V(xc)+E(xc)   XCENC  =       139.49406379
  PAW double counting   =      3107.53394409    -3116.44423764
  entropy T*S    EENTRO =        -0.00000000
  eigenvalues    EBANDS =      -508.46232905
  atomic energy  EATOM  =      2023.82482173
  Solvation  Ediel_sol  =         0.00000000
  ---------------------------------------------------
  free energy    TOTEN  =       -45.98588272 eV

  energy without entropy =      -45.98588272  energy(sigma->0) =      -45.98588272


--------------------------------------------------------------------------------------------------------




--------------------------------------- Iteration      1(  19)  ---------------------------------------


    POTLOK:  cpu time   34.7500: real time   34.7848
    SETDIJ:  cpu time    0.0575: real time    0.0576
     EDDAV:  cpu time   22.1850: real time   22.2164
       DOS:  cpu time    0.0023: real time    0.0023
    CHARGE:  cpu time   20.5551: real time   20.5716
    MIXING:  cpu time    1.1324: real time    1.1337
    --------------------------------------------
      LOOP:  cpu time   78.6823: real time   78.7663

 eigenvalue-minimisations  :    48
 total energy-change (2. order) :-0.3327649E-03  (-0.1260490E-05)
 number of electron      31.9999999 magnetization 
 augmentation part        2.6775729 magnetization 

 Broyden mixing:
  rms(total) = 0.66431E-03    rms(broyden)= 0.66431E-03
  rms(prec ) = 0.69900E-03
  weight for this iteration     100.00

 eigenvalues of (default mixing * dielectric matrix)
  average eigenvalue GAMMA=   1.8624
  6.9032  3.7633  2.5535  1.9806  1.9806  1.3243  1.3243  0.9785  0.9785  0.9169
  0.9169  0.9367  0.7098  0.8057

 Free energy of the ion-electron system (eV)
  ---------------------------------------------------
  alpha Z        PSCENC =         0.09979497
  Ewald energy   TEWEN  =      1592.81084052
  -Hartree energ DENC   =     -3284.83649672
  -exchange      EXHF   =         0.00000000
  -V(xc)+E(xc)   XCENC  =       139.49152108
  PAW double counting   =      3107.75273538    -3116.66521092
  entropy T*S    EENTRO =        -0.00000000
  eigenvalues    EBANDS =      -508.46422152
  atomic energy  EATOM  =      2023.82482173
  Solvation  Ediel_sol  =         0.00000000
  ---------------------------------------------------
  free energy    TOTEN  =       -45.98621549 eV

  energy without entropy =      -45.98621549  energy(sigma->0) =      -45.98621549


--------------------------------------------------------------------------------------------------------




--------------------------------------- Iteration      1(  20)  ---------------------------------------


    POTLOK:  cpu time   34.7084: real time   34.7448
    SETDIJ:  cpu time    0.0570: real time    0.0571
     EDDAV:  cpu time   22.1055: real time   22.1371
       DOS:  cpu time    0.0039: real time    0.0039
    CHARGE:  cpu time   20.5376: real time   20.5537
    MIXING:  cpu time    1.1348: real time    1.1361
    --------------------------------------------
      LOOP:  cpu time   78.5472: real time   78.6328

 eigenvalue-minimisations  :    48
 total energy-change (2. order) :-0.1659829E-03  (-0.4875884E-06)
 number of electron      31.9999999 magnetization 
 augmentation part        2.6776437 magnetization 

 Broyden mixing:
  rms(total) = 0.35677E-03    rms(broyden)= 0.35677E-03
  rms(prec ) = 0.38026E-03
  weight for this iteration     100.00

 eigenvalues of (default mixing * dielectric matrix)
  average eigenvalue GAMMA=   1.9527
  7.5168  4.3161  2.6101  2.3546  1.8280  1.8280  1.4995  0.8949  0.8949  0.9893
  0.9893  1.0302  1.0302  0.7103  0.7988

 Free energy of the ion-electron system (eV)
  ---------------------------------------------------
  alpha Z        PSCENC =         0.09979497
  Ewald energy   TEWEN  =      1592.81084052
  -Hartree energ DENC   =     -3284.84896612
  -exchange      EXHF   =         0.00000000
  -V(xc)+E(xc)   XCENC  =       139.49084548
  PAW double counting   =      3107.78301143    -3116.69650126
  entropy T*S    EENTRO =        -0.00000000
  eigenvalues    EBANDS =      -508.45022822
  atomic energy  EATOM  =      2023.82482173
  Solvation  Ediel_sol  =         0.00000000
  ---------------------------------------------------
  free energy    TOTEN  =       -45.98638147 eV

  energy without entropy =      -45.98638147  energy(sigma->0) =      -45.98638147


--------------------------------------------------------------------------------------------------------




--------------------------------------- Iteration      1(  21)  ---------------------------------------


    POTLOK:  cpu time   34.6820: real time   34.7152
    SETDIJ:  cpu time    0.0448: real time    0.0448
     EDDAV:  cpu time   24.6309: real time   24.6656
       DOS:  cpu time    0.0071: real time    0.0071
    CHARGE:  cpu time   20.4747: real time   20.4937
    MIXING:  cpu time    1.1918: real time    1.1931
    --------------------------------------------
      LOOP:  cpu time   81.0312: real time   81.1196

 eigenvalue-minimisations  :    56
 total energy-change (2. order) :-0.1384423E-03  (-0.4331012E-06)
 number of electron      31.9999999 magnetization 
 augmentation part        2.6777093 magnetization 

 Broyden mixing:
  rms(total) = 0.13783E-03    rms(broyden)= 0.13783E-03
  rms(prec ) = 0.15046E-03
  weight for this iteration     100.00

 eigenvalues of (default mixing * dielectric matrix)
  average eigenvalue GAMMA=   2.0308
  8.3558  4.9682  2.9996  2.3577  1.9748  1.9748  1.2274  1.2274  1.1932  0.9102
  0.9102  0.9898  0.9898  0.7104  0.8616  0.8418

 Free energy of the ion-electron system (eV)
  ---------------------------------------------------
  alpha Z        PSCENC =         0.09979497
  Ewald energy   TEWEN  =      1592.81084052
  -Hartree energ DENC   =     -3284.86114935
  -exchange      EXHF   =         0.00000000
  -V(xc)+E(xc)   XCENC  =       139.49052385
  PAW double counting   =      3107.60684328    -3116.52091666
  entropy T*S    EENTRO =        -0.00000000
  eigenvalues    EBANDS =      -508.43727825
  atomic energy  EATOM  =      2023.82482173
  Solvation  Ediel_sol  =         0.00000000
  ---------------------------------------------------
  free energy    TOTEN  =       -45.98651991 eV

  energy without entropy =      -45.98651991  energy(sigma->0) =      -45.98651991


--------------------------------------------------------------------------------------------------------




--------------------------------------- Iteration      1(  22)  ---------------------------------------


    POTLOK:  cpu time   34.6378: real time   34.6747
    SETDIJ:  cpu time    0.0434: real time    0.0434
     EDDAV:  cpu time   22.1799: real time   22.2085
       DOS:  cpu time    0.0051: real time    0.0051
    CHARGE:  cpu time   20.4939: real time   20.5123
    MIXING:  cpu time    1.1968: real time    1.1982
    --------------------------------------------
      LOOP:  cpu time   78.5569: real time   78.6423

 eigenvalue-minimisations  :    48
 total energy-change (2. order) :-0.5668178E-04  (-0.7738524E-07)
 number of electron      31.9999999 magnetization 
 augmentation part        2.6777001 magnetization 

 Broyden mixing:
  rms(total) = 0.67898E-04    rms(broyden)= 0.67898E-04
  rms(prec ) = 0.74759E-04
  weight for this iteration     100.00

 eigenvalues of (default mixing * dielectric matrix)
  average eigenvalue GAMMA=   2.0702
  8.6031  5.1047  3.0825  2.4940  2.4940  1.8144  1.8144  1.4148  0.9047  0.9047
  0.9919  0.9919  1.1377  0.9626  0.9626  0.7103  0.8057

 Free energy of the ion-electron system (eV)
  ---------------------------------------------------
  alpha Z        PSCENC =         0.09979497
  Ewald energy   TEWEN  =      1592.81084052
  -Hartree energ DENC   =     -3284.87064652
  -exchange      EXHF   =         0.00000000
  -V(xc)+E(xc)   XCENC  =       139.49062217
  PAW double counting   =      3107.59870641    -3116.51261940
  entropy T*S    EENTRO =        -0.00000000
  eigenvalues    EBANDS =      -508.42809647
  atomic energy  EATOM  =      2023.82482173
  Solvation  Ediel_sol  =         0.00000000
  ---------------------------------------------------
  free energy    TOTEN  =       -45.98657659 eV

  energy without entropy =      -45.98657659  energy(sigma->0) =      -45.98657659


--------------------------------------------------------------------------------------------------------




--------------------------------------- Iteration      1(  23)  ---------------------------------------


    POTLOK:  cpu time   34.5856: real time   34.6201
    SETDIJ:  cpu time    0.0563: real time    0.0564
     EDDAV:  cpu time   16.9714: real time   16.9921
       DOS:  cpu time    0.0070: real time    0.0070
    CHARGE:  cpu time   20.5386: real time   20.5601
    MIXING:  cpu time    1.2508: real time    1.2524
    --------------------------------------------
      LOOP:  cpu time   73.4097: real time   73.4881

 eigenvalue-minimisations  :    32
 total energy-change (2. order) :-0.2866302E-04  (-0.1887116E-07)
 number of electron      31.9999999 magnetization 
 augmentation part        2.6777099 magnetization 

 Broyden mixing:
  rms(total) = 0.68900E-04    rms(broyden)= 0.68900E-04
  rms(prec ) = 0.71823E-04
  weight for this iteration     100.00

 eigenvalues of (default mixing * dielectric matrix)
  average eigenvalue GAMMA=   2.1485
  9.1045  5.7338  3.6759  2.9147  2.3444  2.0011  2.0011  1.3407  1.3407  0.9071
  0.9071  0.9918  0.9918  1.0909  0.7103  0.9091  0.9091  0.7995

 Free energy of the ion-electron system (eV)
  ---------------------------------------------------
  alpha Z        PSCENC =         0.09979497
  Ewald energy   TEWEN  =      1592.81084052
  -Hartree energ DENC   =     -3284.87319490
  -exchange      EXHF   =         0.00000000
  -V(xc)+E(xc)   XCENC  =       139.49056824
  PAW double counting   =      3107.54750752    -3116.46128474
  entropy T*S    EENTRO =        -0.00000000
  eigenvalues    EBANDS =      -508.42565860
  atomic energy  EATOM  =      2023.82482173
  Solvation  Ediel_sol  =         0.00000000
  ---------------------------------------------------
  free energy    TOTEN  =       -45.98660526 eV

  energy without entropy =      -45.98660526  energy(sigma->0) =      -45.98660526


--------------------------------------------------------------------------------------------------------




--------------------------------------- Iteration      1(  24)  ---------------------------------------


    POTLOK:  cpu time   34.6065: real time   34.6397
    SETDIJ:  cpu time    0.0555: real time    0.0556
     EDDAV:  cpu time   16.9517: real time   16.9717
       DOS:  cpu time    0.0153: real time    0.0153
    CHARGE:  cpu time   20.4984: real time   20.5176
    MIXING:  cpu time    1.3133: real time    1.3149
    --------------------------------------------
      LOOP:  cpu time   73.4407: real time   73.5148

 eigenvalue-minimisations  :    32
 total energy-change (2. order) :-0.1213398E-04  (-0.1188486E-07)
 number of electron      31.9999999 magnetization 
 augmentation part        2.6777073 magnetization 

 Broyden mixing:
  rms(total) = 0.63333E-04    rms(broyden)= 0.63333E-04
  rms(prec ) = 0.65267E-04
  weight for this iteration     100.00

 eigenvalues of (default mixing * dielectric matrix)
  average eigenvalue GAMMA=   2.1572
  9.3288  5.8643  4.1229  2.6240  2.3700  2.3700  1.7495  1.7495  1.4055  0.9046
  0.9046  0.9919  0.9919  1.2284  0.7103  0.9731  0.9731  0.9204  0.8048

 Free energy of the ion-electron system (eV)
  ---------------------------------------------------
  alpha Z        PSCENC =         0.09979497
  Ewald energy   TEWEN  =      1592.81084052
  -Hartree energ DENC   =     -3284.87392005
  -exchange      EXHF   =         0.00000000
  -V(xc)+E(xc)   XCENC  =       139.49054728
  PAW double counting   =      3107.56006989    -3116.47372168
  entropy T*S    EENTRO =        -0.00000000
  eigenvalues    EBANDS =      -508.42505004
  atomic energy  EATOM  =      2023.82482173
  Solvation  Ediel_sol  =         0.00000000
  ---------------------------------------------------
  free energy    TOTEN  =       -45.98661739 eV

  energy without entropy =      -45.98661739  energy(sigma->0) =      -45.98661739


--------------------------------------------------------------------------------------------------------




--------------------------------------- Iteration      1(  25)  ---------------------------------------


    POTLOK:  cpu time   34.5403: real time   34.5803
    SETDIJ:  cpu time    0.0624: real time    0.0624
     EDDAV:  cpu time   16.9713: real time   16.9988
       DOS:  cpu time    0.0172: real time    0.0172
    CHARGE:  cpu time   20.5358: real time   20.5520
    MIXING:  cpu time    1.3674: real time    1.3690
    --------------------------------------------
      LOOP:  cpu time   73.4944: real time   73.5797

 eigenvalue-minimisations  :    32
 total energy-change (2. order) :-0.4893859E-05  (-0.1249843E-07)
 number of electron      31.9999999 magnetization 
 augmentation part        2.6776816 magnetization 

 Broyden mixing:
  rms(total) = 0.67836E-04    rms(broyden)= 0.67836E-04
  rms(prec ) = 0.69237E-04
  weight for this iteration     100.00

 eigenvalues of (default mixing * dielectric matrix)
  average eigenvalue GAMMA=   2.1592
  9.3530  6.0681  4.3226  2.6198  2.6198  2.5466  1.9492  1.9492  1.3255  1.3255
  0.9054  0.9054  0.9916  0.9916  1.0339  1.0339  0.7103  0.8694  0.8694  0.7943

 Free energy of the ion-electron system (eV)
  ---------------------------------------------------
  alpha Z        PSCENC =         0.09979497
  Ewald energy   TEWEN  =      1592.81084052
  -Hartree energ DENC   =     -3284.87775362
  -exchange      EXHF   =         0.00000000
  -V(xc)+E(xc)   XCENC  =       139.49075911
  PAW double counting   =      3107.58702682    -3116.50048395
  entropy T*S    EENTRO =        -0.00000000
  eigenvalues    EBANDS =      -508.42162785
  atomic energy  EATOM  =      2023.82482173
  Solvation  Ediel_sol  =         0.00000000
  ---------------------------------------------------
  free energy    TOTEN  =       -45.98662228 eV

  energy without entropy =      -45.98662228  energy(sigma->0) =      -45.98662228


--------------------------------------------------------------------------------------------------------




--------------------------------------- Iteration      1(  26)  ---------------------------------------


    POTLOK:  cpu time   34.4806: real time   34.5134
    SETDIJ:  cpu time    0.0701: real time    0.0701
     EDDAV:  cpu time   17.0670: real time   17.0873
       DOS:  cpu time    0.0062: real time    0.0062
    CHARGE:  cpu time   20.4898: real time   20.5098
    MIXING:  cpu time    1.4201: real time    1.4219
    --------------------------------------------
      LOOP:  cpu time   73.5337: real time   73.6086

 eigenvalue-minimisations  :    32
 total energy-change (2. order) :-0.2307119E-05  (-0.4271904E-08)
 number of electron      31.9999999 magnetization 
 augmentation part        2.6776860 magnetization 

 Broyden mixing:
  rms(total) = 0.46303E-04    rms(broyden)= 0.46303E-04
  rms(prec ) = 0.47328E-04
  weight for this iteration     100.00

 eigenvalues of (default mixing * dielectric matrix)
  average eigenvalue GAMMA=   2.1476
  9.5026  6.4569  4.4883  3.0134  2.5267  2.1502  2.1502  1.8276  1.5138  1.5138
  0.9048  0.9048  0.9927  0.9927  1.0288  1.0288  0.7103  0.8784  0.8784  0.8180
  0.8180

 Free energy of the ion-electron system (eV)
  ---------------------------------------------------
  alpha Z        PSCENC =         0.09979497
  Ewald energy   TEWEN  =      1592.81084052
  -Hartree energ DENC   =     -3284.87663385
  -exchange      EXHF   =         0.00000000
  -V(xc)+E(xc)   XCENC  =       139.49068275
  PAW double counting   =      3107.58408292    -3116.49766304
  entropy T*S    EENTRO =        -0.00000000
  eigenvalues    EBANDS =      -508.42255059
  atomic energy  EATOM  =      2023.82482173
  Solvation  Ediel_sol  =         0.00000000
  ---------------------------------------------------
  free energy    TOTEN  =       -45.98662459 eV

  energy without entropy =      -45.98662459  energy(sigma->0) =      -45.98662459


--------------------------------------------------------------------------------------------------------




--------------------------------------- Iteration      1(  27)  ---------------------------------------


    POTLOK:  cpu time   34.5114: real time   34.5443
    SETDIJ:  cpu time    0.0540: real time    0.0540
     EDDAV:  cpu time   17.0120: real time   17.0322
       DOS:  cpu time    0.0199: real time    0.0199
    CHARGE:  cpu time   20.5328: real time   20.5494
    MIXING:  cpu time    1.4314: real time    1.4331
    --------------------------------------------
      LOOP:  cpu time   73.5614: real time   73.6330

 eigenvalue-minimisations  :    32
 total energy-change (2. order) :-0.7794565E-06  (-0.2924338E-08)
 number of electron      31.9999999 magnetization 
 augmentation part        2.6776953 magnetization 

 Broyden mixing:
  rms(total) = 0.29599E-04    rms(broyden)= 0.29599E-04
  rms(prec ) = 0.30345E-04
  weight for this iteration     100.00

 eigenvalues of (default mixing * dielectric matrix)
  average eigenvalue GAMMA=   2.0984
  9.5115  6.4872  4.4956  2.9733  2.4576  2.1650  2.1650  1.6158  1.6158  1.6467
  0.9059  0.9059  0.9934  0.9934  0.9355  0.9355  0.7103  1.0676  1.0302  0.8001
  0.8762  0.8762

 Free energy of the ion-electron system (eV)
  ---------------------------------------------------
  alpha Z        PSCENC =         0.09979497
  Ewald energy   TEWEN  =      1592.81084052
  -Hartree energ DENC   =     -3284.87519953
  -exchange      EXHF   =         0.00000000
  -V(xc)+E(xc)   XCENC  =       139.49059071
  PAW double counting   =      3107.58136286    -3116.49500713
  entropy T*S    EENTRO =        -0.00000000
  eigenvalues    EBANDS =      -508.42382950
  atomic energy  EATOM  =      2023.82482173
  Solvation  Ediel_sol  =         0.00000000
  ---------------------------------------------------
  free energy    TOTEN  =       -45.98662537 eV

  energy without entropy =      -45.98662537  energy(sigma->0) =      -45.98662537


--------------------------------------------------------------------------------------------------------




--------------------------------------- Iteration      1(  28)  ---------------------------------------


    POTLOK:  cpu time   34.5443: real time   34.5828
    SETDIJ:  cpu time    0.0449: real time    0.0450
     EDDAV:  cpu time   17.0398: real time   17.0627
       DOS:  cpu time    0.0128: real time    0.0128
    CHARGE:  cpu time   20.5195: real time   20.5396
    MIXING:  cpu time    1.4922: real time    1.4941
    --------------------------------------------
      LOOP:  cpu time   73.6536: real time   73.7370

 eigenvalue-minimisations  :    32
 total energy-change (2. order) :-0.3807158E-06  (-0.8250645E-09)
 number of electron      31.9999999 magnetization 
 augmentation part        2.6776962 magnetization 

 Broyden mixing:
  rms(total) = 0.13731E-04    rms(broyden)= 0.13731E-04
  rms(prec ) = 0.14143E-04
  weight for this iteration     100.00

 eigenvalues of (default mixing * dielectric matrix)
  average eigenvalue GAMMA=   2.1584
  9.5861  6.7132  4.7332  3.3205  2.6320  2.3981  2.3981  1.8738  1.8738  1.3639
  1.3639  0.9057  0.9057  1.1551  1.1551  0.9923  0.9923  0.7103  0.9886  0.9522
  0.9522  0.8050  0.8726

 Free energy of the ion-electron system (eV)
  ---------------------------------------------------
  alpha Z        PSCENC =         0.09979497
  Ewald energy   TEWEN  =      1592.81084052
  -Hartree energ DENC   =     -3284.87529154
  -exchange      EXHF   =         0.00000000
  -V(xc)+E(xc)   XCENC  =       139.49059704
  PAW double counting   =      3107.58108752    -3116.49472692
  entropy T*S    EENTRO =        -0.00000000
  eigenvalues    EBANDS =      -508.42374908
  atomic energy  EATOM  =      2023.82482173
  Solvation  Ediel_sol  =         0.00000000
  ---------------------------------------------------
  free energy    TOTEN  =       -45.98662575 eV

  energy without entropy =      -45.98662575  energy(sigma->0) =      -45.98662575


--------------------------------------------------------------------------------------------------------




--------------------------------------- Iteration      1(  29)  ---------------------------------------


    POTLOK:  cpu time   34.5202: real time   34.5534
    SETDIJ:  cpu time    0.0758: real time    0.0758
     EDDAV:  cpu time   17.0357: real time   17.0596
       DOS:  cpu time    0.0017: real time    0.0017
    CHARGE:  cpu time   20.5258: real time   20.5465
    MIXING:  cpu time    1.5341: real time    1.5361
    --------------------------------------------
      LOOP:  cpu time   73.6932: real time   73.7731

 eigenvalue-minimisations  :    32
 total energy-change (2. order) :-0.9378673E-06  (-0.1704912E-08)
 number of electron      31.9999999 magnetization 
 augmentation part        2.6776969 magnetization 

 Broyden mixing:
  rms(total) = 0.14501E-04    rms(broyden)= 0.14501E-04
  rms(prec ) = 0.14862E-04
  weight for this iteration     100.00

 eigenvalues of (default mixing * dielectric matrix)
  average eigenvalue GAMMA=   2.1167
  9.6627  6.9030  4.9997  3.3800  2.8911  2.4129  1.9974  1.9974  1.7286  1.7286
  1.3224  0.9056  0.9056  0.9907  0.9907  1.1262  1.1262  0.8607  0.8607  0.9156
  0.9156  0.7103  0.8032  0.6667

 Free energy of the ion-electron system (eV)
  ---------------------------------------------------
  alpha Z        PSCENC =         0.09979497
  Ewald energy   TEWEN  =      1592.81084052
  -Hartree energ DENC   =     -3284.87521990
  -exchange      EXHF   =         0.00000000
  -V(xc)+E(xc)   XCENC  =       139.49059277
  PAW double counting   =      3107.58209304    -3116.49575550
  entropy T*S    EENTRO =        -0.00000000
  eigenvalues    EBANDS =      -508.42379432
  atomic energy  EATOM  =      2023.82482173
  Solvation  Ediel_sol  =         0.00000000
  ---------------------------------------------------
  free energy    TOTEN  =       -45.98662669 eV

  energy without entropy =      -45.98662669  energy(sigma->0) =      -45.98662669


--------------------------------------------------------------------------------------------------------




--------------------------------------- Iteration      1(  30)  ---------------------------------------


    POTLOK:  cpu time   34.6102: real time   34.6432
    SETDIJ:  cpu time    0.0490: real time    0.0490
     EDDAV:  cpu time   17.0806: real time   17.1019
       DOS:  cpu time    0.0082: real time    0.0082
    --------------------------------------------
      LOOP:  cpu time   51.7480: real time   51.8023

 eigenvalue-minimisations  :    32
 total energy-change (2. order) :-0.6153732E-07  (-0.8692389E-09)
 number of electron      31.9999999 magnetization 
 augmentation part        2.6776969 magnetization 

 Free energy of the ion-electron system (eV)
  ---------------------------------------------------
  alpha Z        PSCENC =         0.09979497
  Ewald energy   TEWEN  =      1592.81084052
  -Hartree energ DENC   =     -3284.87532597
  -exchange      EXHF   =         0.00000000
  -V(xc)+E(xc)   XCENC  =       139.49059880
  PAW double counting   =      3107.58220365    -3116.49585564
  entropy T*S    EENTRO =        -0.00000000
  eigenvalues    EBANDS =      -508.42370481
  atomic energy  EATOM  =      2023.82482173
  Solvation  Ediel_sol  =         0.00000000
  ---------------------------------------------------
  free energy    TOTEN  =       -45.98662675 eV

  energy without entropy =      -45.98662675  energy(sigma->0) =      -45.98662675


--------------------------------------------------------------------------------------------------------




 average (electrostatic) potential at core
  the test charge radii are     0.6991  0.7215
  (the norm of the test charge is              1.0000)
       1 -63.6456       2 -63.6456       3 -82.6581       4 -82.6665       5 -82.6581
       6 -82.6665
 
 
 
 E-fermi :  -8.9990     XC(G=0):  -0.0463     alpha+bet : -0.0117


 k-point     1 :       0.0000    0.0000    0.0000
  band No.  band energies     occupation 
      1     -29.1982      2.00000
      2     -29.1981      2.00000
      3     -28.1905      2.00000
      4     -28.1904      2.00000
      5     -13.7272      2.00000
      6     -13.7190      2.00000
      7     -12.6651      2.00000
      8     -12.6651      2.00000
      9     -12.6647      2.00000
     10     -12.6647      2.00000
     11     -12.5742      2.00000
     12     -12.5627      2.00000
     13      -9.0491      2.00000
     14      -9.0491      2.00000
     15      -9.0469      2.00000
     16      -9.0469      2.00000
     17      -1.0561      0.00000
     18      -0.8773      0.00000
     19      -0.4869      0.00000
     20      -0.4857      0.00000


--------------------------------------------------------------------------------------------------------


 soft charge-density along one line, spin component            1
         0         1         2         3         4         5         6         7         8         9
 total charge-density along one line
 
 pseudopotential strength for first ion, spin component:            1
 10.552  14.041  -0.000  -0.000  -0.000   0.000   0.000   0.000
 14.041  18.681  -0.000  -0.000  -0.000   0.000   0.000   0.000
 -0.000  -0.000  -4.688  -0.000  -0.000   9.151   0.000   0.000
 -0.000  -0.000  -0.000  -4.614  -0.000   0.000   9.027   0.000
 -0.000  -0.000  -0.000  -0.000  -4.614   0.000   0.000   9.027
  0.000   0.000   9.151   0.000   0.000 -20.020  -0.000  -0.000
  0.000   0.000   0.000   9.027   0.000  -0.000 -19.815  -0.000
  0.000   0.000   0.000   0.000   9.027  -0.000  -0.000 -19.815
 total augmentation occupancy for first ion, spin component:            1
 11.073  -5.579  -0.000   0.000   0.000  -0.000  -0.000   0.000
 -5.579   3.019   0.001   0.000   0.000   0.000   0.000  -0.000
 -0.000   0.001   2.593  -0.000  -0.000   0.330   0.000   0.000
  0.000   0.000  -0.000   1.239   0.000  -0.000   0.083   0.000
  0.000   0.000  -0.000   0.000   1.239   0.000   0.000   0.083
 -0.000   0.000   0.330  -0.000   0.000   0.051   0.000  -0.000
 -0.000   0.000   0.000   0.083   0.000   0.000   0.006   0.000
  0.000  -0.000   0.000   0.000   0.083  -0.000   0.000   0.006


------------------------ aborting loop because EDIFF is reached ----------------------------------------



 DIPCOR: dipole corrections for dipol
 direction  1 min pos   440, direction  2 min pos   491, direction  3 min pos   466,
 dipolmoment          -0.000029     -0.000024     -0.000014 electrons x Angstroem
 Tr[quadrupol]        15.804277

 energy correction for charged system         0.000000 eV
 dipol+quadrupol energy correction            0.000000 eV
 added-field ion interaction          0.000000 eV  (added to PSCEN)

 
  *************** adding dipol energy to TOTEN NOW **************** 
    CHARGE:  cpu time   20.5054: real time   20.5222
    FORLOC:  cpu time    1.6911: real time    1.6928
    FORNL :  cpu time    0.9147: real time    0.9162
    STRESS:  cpu time    6.7770: real time    6.7857
    FORCOR:  cpu time   34.7067: real time   34.7387
    FORHAR:  cpu time   10.2576: real time   10.2700
    MIXING:  cpu time    1.5225: real time    1.5245
    OFIELD:  cpu time    0.0001: real time    0.0001

  FORCE on cell =-STRESS in cart. coord.  units (eV):
  Direction    XX          YY          ZZ          XY          YZ          ZX
  --------------------------------------------------------------------------------------
  Alpha Z     0.09979     0.09979     0.09979
  Ewald    -203.37439  1999.56045  -203.37439     0.00000     0.00000    -0.00000
  Hartree   647.52019  1989.83485   647.52019    -0.00000     0.00000    -0.00000
  E(xc)    -150.34001  -146.12447  -150.34001    -0.00000    -0.00000    -0.00000
  Local    -911.41260 -4310.34269  -911.41260    -0.00000    -0.00000    -0.00000
  n-local   -97.07226  -109.30161   -97.07223     0.00000    -0.00000     0.00000
  augment    26.55293    21.02978    26.55293     0.00000    -0.00000     0.00000
  Kinetic   688.02211   558.19160   688.02208    -0.00000     0.00000     0.00000
  Fock        0.00000     0.00000     0.00000     0.00000     0.00000     0.00000
  -------------------------------------------------------------------------------------
  Total      -0.00423     2.94771    -0.00423     0.00000     0.00000     0.00000
  in kB      -0.00016     0.11015    -0.00016     0.00000     0.00000     0.00000
  external pressure =        0.04 kB  Pullay stress =        0.00 kB


 VOLUME and BASIS-vectors are now :
 -----------------------------------------------------------------------------
  energy-cutoff  :     1600.00
  volume of cell :    42875.00
      direct lattice vectors                 reciprocal lattice vectors
    35.000000000  0.000000000  0.000000000     0.028571429  0.000000000  0.000000000
     0.000000000 35.000000000  0.000000000     0.000000000  0.028571429  0.000000000
     0.000000000  0.000000000 35.000000000     0.000000000  0.000000000  0.028571429

  length of vectors
    35.000000000 35.000000000 35.000000000     0.028571429  0.028571429  0.028571429


 FORCES acting on ions
    electron-ion (+dipol)            ewald-force                    non-local-force                 convergence-correction
 -----------------------------------------------------------------------------------------------
   -.733E-15 0.198E+02 0.488E-08   0.361E-17 -.197E+02 0.637E-18   -.533E-25 -.124E-01 -.388E-25   0.758E-14 0.223E-03 0.499E-13
   -.501E-15 -.198E+02 0.110E-08   -.450E-17 0.197E+02 -.270E-17   0.565E-25 0.124E-01 0.129E-25   0.163E-14 -.223E-03 -.595E-14
   0.450E-14 -.237E+03 0.556E-08   0.316E-17 0.302E+03 -.884E-17   0.116E-24 -.644E+02 0.000E+00   0.213E-13 0.767E-04 0.437E-13
   0.422E-14 0.303E+03 0.632E-08   0.219E-16 -.368E+03 -.332E-17   -.139E-24 0.643E+02 -.129E-25   0.177E-13 0.581E-04 0.133E-12
   0.249E-14 0.237E+03 0.319E-08   0.368E-17 -.302E+03 0.110E-18   -.107E-24 0.644E+02 -.194E-25   0.378E-14 -.767E-04 0.133E-13
   -.180E-14 -.303E+03 -.535E-09   -.240E-16 0.368E+03 0.381E-17   0.113E-24 -.643E+02 0.000E+00   0.144E-13 -.581E-04 -.112E-13
 -----------------------------------------------------------------------------------------------
   0.818E-14 -.232E-05 0.205E-07   0.390E-17 0.568E-13 -.103E-16   -.129E-25 0.000E+00 -.582E-25   0.664E-13 -.347E-11 0.223E-12
 
 
 POSITION                                       TOTAL-FORCE (eV/Angst)
 -----------------------------------------------------------------------------------
      0.00000      0.05699      0.00000        -0.000000      0.030598     -0.000000
      0.00000      6.99743      0.00000         0.000000     -0.030598      0.000000
      0.00000      1.22721      0.00000         0.000000      0.612946      0.000000
      0.00000     33.88677      0.00000        -0.000000     -0.644840     -0.000000
      0.00000      5.82721      0.00000         0.000000     -0.612946     -0.000000
      0.00000      8.16765      0.00000         0.000000      0.644840      0.000000
 -----------------------------------------------------------------------------------
    total drift:                                0.000000     -0.000002      0.000000


--------------------------------------------------------------------------------------------------------



  FREE ENERGIE OF THE ION-ELECTRON SYSTEM (eV)
  ---------------------------------------------------
  free  energy   TOTEN  =       -45.98662675 eV

  energy  without entropy=      -45.98662675  energy(sigma->0) =      -45.98662675
 


--------------------------------------------------------------------------------------------------------


    POTLOK:  cpu time   34.5980: real time   34.6309


--------------------------------------------------------------------------------------------------------


 writing wavefunctions
     LOOP+:  cpu time 2742.7669: real time 2745.4077
    4ORBIT:  cpu time    0.0000: real time    0.0000

 total amount of memory used by VASP MPI-rank0  5977588. kBytes
=======================================================================

   base      :      30000. kBytes
   nonl-proj :      87230. kBytes
   fftplans  :    2143445. kBytes
   grid      :    3654604. kBytes
   one-center:          1. kBytes
   wavefun   :      62308. kBytes
 
  
  
 General timing and accounting informations for this job:
 ========================================================
  
                  Total CPU time used (sec):     3392.880
                            User time (sec):     3164.017
                          System time (sec):      228.863
                         Elapsed time (sec):     3396.308
  
                   Maximum memory used (kb):     8067680.
                   Average memory used (kb):           0.
  
                          Minor page faults:    158908494
                          Major page faults:          187
                 Voluntary context switches:         1834
