 vasp.6.1.2 22Jul20 (build Jan  6 2021 09:55:43) gamma-only                      
 executed on             LinuxPGI date 2021.04.14  06:49:21
 running on   16 total cores
 distrk:  each k-point on   16 cores,    1 groups
 distr:  one band on NCORE=   8 cores,    2 groups


--------------------------------------------------------------------------------------------------------


 INCAR:
 POTCAR:    PAW_PBE C 08Apr2002                   
 POTCAR:    PAW_PBE O 08Apr2002                   
 POTCAR:    PAW_PBE C 08Apr2002                   
   VRHFIN =C: s2p2                                                                                  
   LEXCH  = PE                                                                                      
   EATOM  =   147.1560 eV,   10.8157 Ry                                                             
                                                                                                    
   TITEL  = PAW_PBE C 08Apr2002                                                                     
   LULTRA =        F    use ultrasoft PP ?                                                          
   IUNSCR =        1    unscreen: 0-lin 1-nonlin 2-no                                               
   RPACOR =    1.200    partial core radius                                                         
   POMASS =   12.011; ZVAL   =    4.000    mass and valenz                                          
   RCORE  =    1.500    outmost cutoff radius                                                       
   RWIGS  =    1.630; RWIGS  =    0.863    wigner-seitz radius (au A)                               
   ENMAX  =  400.000; ENMIN  =  300.000 eV                                                          
   ICORE  =        2    local potential                                                             
   LCOR   =        T    correct aug charges                                                         
   LPAW   =        T    paw PP                                                                      
   EAUG   =  644.873                                                                                
   DEXC   =    0.000                                                                                
   RMAX   =    1.529    core radius for proj-oper                                                   
   RAUG   =    1.300    factor for augmentation sphere                                              
   RDEP   =    1.501    radius for radial grids                                                     
   RDEPT  =    1.300    core radius for aug-charge                                                  
                                                                                                    
   Atomic configuration                                                                             
    4 entries                                                                                       
     n  l   j            E        occ.                                                              
     1  0  0.50      -273.3789   2.0000                                                             
     2  0  0.50       -13.7508   2.0000                                                             
     2  1  0.50        -5.2854   2.0000                                                             
     3  2  1.50        -5.4423   0.0000                                                             
   Description                                                                                      
     l       E           TYP  RCUT    TYP  RCUT                                                     
     0    -13.7508458     23  1.200                                                                 
     0     -8.2022199     23  1.200                                                                 
     1     -5.2854383     23  1.500                                                                 
     1     34.0145650     23  1.500                                                                 
     2     -5.4423304      7  1.500                                                                 
  local pseudopotential read in
  partial core-charges read in
  partial kinetic energy density read in
  atomic valenz-charges read in
  non local Contribution for L=            0  read in
    real space projection operators read in
  non local Contribution for L=            0  read in
    real space projection operators read in
  non local Contribution for L=            1  read in
    real space projection operators read in
  non local Contribution for L=            1  read in
    real space projection operators read in
    PAW grid and wavefunctions read in
 
   number of l-projection  operators is LMAX  =            4
   number of lm-projection operators is LMMAX =            8
 
 POTCAR:    PAW_PBE O 08Apr2002                   
   VRHFIN =O: s2p4                                                                                  
   LEXCH  = PE                                                                                      
   EATOM  =   432.3788 eV,   31.7789 Ry                                                             
                                                                                                    
   TITEL  = PAW_PBE O 08Apr2002                                                                     
   LULTRA =        F    use ultrasoft PP ?                                                          
   IUNSCR =        1    unscreen: 0-lin 1-nonlin 2-no                                               
   RPACOR =    1.200    partial core radius                                                         
   POMASS =   16.000; ZVAL   =    6.000    mass and valenz                                          
   RCORE  =    1.520    outmost cutoff radius                                                       
   RWIGS  =    1.550; RWIGS  =    0.820    wigner-seitz radius (au A)                               
   ENMAX  =  400.000; ENMIN  =  300.000 eV                                                          
   ICORE  =        2    local potential                                                             
   LCOR   =        T    correct aug charges                                                         
   LPAW   =        T    paw PP                                                                      
   EAUG   =  605.392                                                                                
   DEXC   =    0.000                                                                                
   RMAX   =    1.553    core radius for proj-oper                                                   
   RAUG   =    1.300    factor for augmentation sphere                                              
   RDEP   =    1.550    radius for radial grids                                                     
   RDEPT  =    1.329    core radius for aug-charge                                                  
                                                                                                    
   Atomic configuration                                                                             
    4 entries                                                                                       
     n  l   j            E        occ.                                                              
     1  0  0.50      -514.6923   2.0000                                                             
     2  0  0.50       -23.9615   2.0000                                                             
     2  1  0.50        -9.0305   4.0000                                                             
     3  2  1.50        -9.5241   0.0000                                                             
   Description                                                                                      
     l       E           TYP  RCUT    TYP  RCUT                                                     
     0    -23.9615318     23  1.200                                                                 
     0     -9.5240782     23  1.200                                                                 
     1     -9.0304911     23  1.520                                                                 
     1      8.1634956     23  1.520                                                                 
     2     -9.5240782      7  1.500                                                                 
  local pseudopotential read in
  partial core-charges read in
  partial kinetic energy density read in
  kinetic energy density of atom read in
  atomic valenz-charges read in
  non local Contribution for L=            0  read in
    real space projection operators read in
  non local Contribution for L=            0  read in
    real space projection operators read in
  non local Contribution for L=            1  read in
    real space projection operators read in
  non local Contribution for L=            1  read in
    real space projection operators read in
    PAW grid and wavefunctions read in
 
   number of l-projection  operators is LMAX  =            4
   number of lm-projection operators is LMMAX =            8
 
  PAW_PBE C 08Apr2002                   :
 energy of atom  1       EATOM= -147.1560
 kinetic energy error for atom=    0.0002 (will be added to EATOM!!)
  PAW_PBE O 08Apr2002                   :
 energy of atom  2       EATOM= -432.3788
 kinetic energy error for atom=    0.0005 (will be added to EATOM!!)
 
 
 POSCAR:  C  O
  positions in cartesian coordinates
  No initial velocities read in
 exchange correlation table for  LEXCH =        8
   RHO(1)=    0.500       N(1)  =     2000
   RHO(2)=  100.500       N(2)  =     4000
 


--------------------------------------------------------------------------------------------------------


 ion  position               nearest neighbor table
   1  0.000  0.002  0.000-   3 1.17   4 1.17
   2  0.000  0.188  0.000-   5 1.17   6 1.17
   3  0.000  0.035  0.000-   1 1.17
   4  0.000  0.968  0.000-   1 1.17
   5  0.000  0.155  0.000-   2 1.17
   6  0.000  0.222  0.000-   2 1.17
 
  LATTYP: Found a simple cubic cell.
 ALAT       =    35.0000000000
  
  Lattice vectors:
  
 A1 = (  35.0000000000,   0.0000000000,   0.0000000000)
 A2 = (   0.0000000000,  35.0000000000,   0.0000000000)
 A3 = (   0.0000000000,   0.0000000000,  35.0000000000)


Analysis of symmetry for initial positions (statically):
=====================================================================
 Subroutine PRICEL returns:
 Original cell was already a primitive cell.
 

 Routine SETGRP: Setting up the symmetry group for a 
 simple cubic supercell.


 Subroutine GETGRP returns: Found 16 space group operations
 (whereof  8 operations were pure point group operations)
 out of a pool of 48 trial point group operations.


The static configuration has the point symmetry C_4v.
 The point group associated with its full space group is D_4h.


Analysis of symmetry for dynamics (positions and initial velocities):
=====================================================================
 Subroutine PRICEL returns:
 Original cell was already a primitive cell.
 

 Routine SETGRP: Setting up the symmetry group for a 
 simple cubic supercell.


 Subroutine GETGRP returns: Found 16 space group operations
 (whereof  8 operations were pure point group operations)
 out of a pool of 48 trial point group operations.


The dynamic configuration has the point symmetry C_4v.
 The point group associated with its full space group is D_4h.


 Subroutine INISYM returns: Found 16 space group operations
 (whereof  8 operations are pure point group operations),
 and found     1 'primitive' translations


----------------------------------------------------------------------------------------

                                     Primitive cell                                     

  volume of cell :   42875.0000

  direct lattice vectors                    reciprocal lattice vectors
    35.000000000  0.000000000  0.000000000     0.028571429  0.000000000  0.000000000
     0.000000000 35.000000000  0.000000000     0.000000000  0.028571429  0.000000000
     0.000000000  0.000000000 35.000000000     0.000000000  0.000000000  0.028571429

  length of vectors
    35.000000000 35.000000000 35.000000000     0.028571429  0.028571429  0.028571429

  position of ions in fractional coordinates (direct lattice)
     0.000000000  0.001628171  0.000000000
     0.000000000  0.188497886  0.000000000
     0.000000000  0.035063029  0.000000000
     0.000000000  0.968193314  0.000000000
     0.000000000  0.155063029  0.000000000
     0.000000000  0.221932743  0.000000000

  ion indices of the primitive-cell ions
   primitive index   ion index
                 1           1
                 2           2
                 3           3
                 4           4
                 5           5
                 6           6

----------------------------------------------------------------------------------------

 
 
 KPOINTS: automatic mesh                          

Automatic generation of k-mesh.
Space group operators:
 irot       det(A)        alpha          n_x          n_y          n_z        tau_x        tau_y        tau_z
    1     1.000000     0.000000     1.000000     0.000000     0.000000     0.000000     0.000000     0.000000
    2     1.000000    90.000000     0.000000     1.000000     0.000000     0.000000     0.000000     0.000000
    3    -1.000000   180.000000     0.000000     0.000000     1.000000     0.000000     0.000000     0.000000
    4    -1.000000   180.000000     0.707107     0.000000     0.707107     0.000000     0.000000     0.000000
    5    -1.000000   180.000000     1.000000     0.000000     0.000000     0.000000     0.000000     0.000000
    6     1.000000    90.000000     0.000000    -1.000000     0.000000     0.000000     0.000000     0.000000
    7     1.000000   180.000000     0.000000     1.000000     0.000000     0.000000     0.000000     0.000000
    8    -1.000000   180.000000     0.707107     0.000000    -0.707107     0.000000     0.000000     0.000000
    9    -1.000000     0.000000     1.000000     0.000000     0.000000     0.000000     0.190126     0.000000
   10    -1.000000    90.000000     0.000000     1.000000     0.000000     0.000000     0.190126     0.000000
   11     1.000000   180.000000     0.000000     0.000000     1.000000     0.000000     0.190126     0.000000
   12     1.000000   180.000000     0.707107     0.000000     0.707107     0.000000     0.190126     0.000000
   13     1.000000   180.000000     1.000000     0.000000     0.000000     0.000000     0.190126     0.000000
   14    -1.000000    90.000000     0.000000    -1.000000     0.000000     0.000000     0.190126     0.000000
   15    -1.000000   180.000000     0.000000     1.000000     0.000000     0.000000     0.190126     0.000000
   16     1.000000   180.000000     0.707107     0.000000    -0.707107     0.000000     0.190126     0.000000
 
 Subroutine IBZKPT returns following result:
 ===========================================
 
 Found      1 irreducible k-points:
 
 Following reciprocal coordinates:
            Coordinates               Weight
  0.000000  0.000000  0.000000      1.000000
 
 Following cartesian coordinates:
            Coordinates               Weight
  0.000000  0.000000  0.000000      1.000000
 


--------------------------------------------------------------------------------------------------------




 Dimension of arrays:
   k-points           NKPTS =      1   k-points in BZ     NKDIM =      1   number of bands    NBANDS=     20
   number of dos      NEDOS =    301   number of ions     NIONS =      6
   non local maximal  LDIM  =      4   non local SUM 2l+1 LMDIM =      8
   total plane-waves  NPLWV = ******
   max r-space proj   IRMAX =      1   max aug-charges    IRDMAX=  33660
   dimension x,y,z NGX =   480 NGY =  480 NGZ =  480
   dimension x,y,z NGXF=   960 NGYF=  960 NGZF=  960
   support grid    NGXF=   960 NGYF=  960 NGZF=  960
   ions per type =               2   4
   NGX,Y,Z   is equivalent  to a cutoff of  22.80, 22.80, 22.80 a.u.
   NGXF,Y,Z  is equivalent  to a cutoff of  45.60, 45.60, 45.60 a.u.

 SYSTEM =  C                                       
 POSCAR =   C  O                                   

 Startparameter for this run:
   NWRITE =      2    write-flag & timer
   PREC   = acc       normal or accurate (medium, high low for compatibility)
   ISTART =      0    job   : 0-new  1-cont  2-samecut
   ICHARG =      2    charge: 1-file 2-atom 10-const
   ISPIN  =      1    spin polarized calculation?
   LNONCOLLINEAR =      F non collinear calculations
   LSORBIT =      F    spin-orbit coupling
   INIWAV =      1    electr: 0-lowe 1-rand  2-diag
   LASPH  =      T    aspherical Exc in radial PAW
   METAGGA=      F    non-selfconsistent MetaGGA calc.

 Electronic Relaxation 1
   ENCUT  = 1600.0 eV 117.60 Ry   10.84 a.u. 114.15114.15114.15*2*pi/ulx,y,z
   ENINI  = 1600.0     initial cutoff
   ENAUG  =  644.9 eV  augmentation charge cutoff
   NELM   =     60;   NELMIN=  2; NELMDL= -5     # of ELM steps 
   EDIFF  = 0.1E-06   stopping-criterion for ELM
   LREAL  =      F    real-space projection
   NLSPLINE    = F    spline interpolate recip. space projectors
   LCOMPAT=      F    compatible to vasp.4.4
   GGA_COMPAT  = T    GGA compatible to vasp.4.4-vasp.4.6
   LMAXPAW     = -100 max onsite density
   LMAXMIX     =    2 max onsite mixed and CHGCAR
   VOSKOWN=      0    Vosko Wilk Nusair interpolation
   ROPT   =    0.00000   0.00000
 Ionic relaxation
   EDIFFG = 0.1E-05   stopping-criterion for IOM
   NSW    =      0    number of steps for IOM
   NBLOCK =      1;   KBLOCK =      1    inner block; outer block 
   IBRION =     -1    ionic relax: 0-MD 1-quasi-New 2-CG
   NFREE  =      0    steps in history (QN), initial steepest desc. (CG)
   ISIF   =      2    stress and relaxation
   IWAVPR =     10    prediction:  0-non 1-charg 2-wave 3-comb
   ISYM   =      2    0-nonsym 1-usesym 2-fastsym
   LCORR  =      T    Harris-Foulkes like correction to forces

   POTIM  = 0.5000    time-step for ionic-motion
   TEIN   =    0.0    initial temperature
   TEBEG  =    0.0;   TEEND  =   0.0 temperature during run
   SMASS  =  -3.00    Nose mass-parameter (am)
   estimated Nose-frequenzy (Omega)   =  0.10E-29 period in steps = 0.13E+47 mass=  -0.280E-25a.u.
   SCALEE = 1.0000    scale energy and forces
   NPACO  =    256;   APACO  = 16.0  distance and # of slots for P.C.
   PSTRESS=    0.0 pullay stress

  Mass of Ions in am
   POMASS =  12.01 16.00
  Ionic Valenz
   ZVAL   =   4.00  6.00
  Atomic Wigner-Seitz radii
   RWIGS  =  -1.00 -1.00
  virtual crystal weights 
   VCA    =   1.00  1.00
   NELECT =      32.0000    total number of electrons
   NUPDOWN=      -1.0000    fix difference up-down

 DOS related values:
   EMIN   =  10.00;   EMAX   =-10.00  energy-range for DOS
   EFERMI =   0.00
   ISMEAR =     0;   SIGMA  =   0.01  broadening in eV -4-tet -1-fermi 0-gaus

 Electronic relaxation 2 (details)
   IALGO  =     38    algorithm
   LDIAG  =      T    sub-space diagonalisation (order eigenvalues)
   LSUBROT=      F    optimize rotation matrix (better conditioning)
   TURBO    =      0    0=normal 1=particle mesh
   IRESTART =      0    0=no restart 2=restart with 2 vectors
   NREBOOT  =      0    no. of reboots
   NMIN     =      0    reboot dimension
   EREF     =   0.00    reference energy to select bands
   IMIX   =      4    mixing-type and parameters
     AMIX     =   0.40;   BMIX     =  1.00
     AMIX_MAG =   1.60;   BMIX_MAG =  1.00
     AMIN     =   0.10
     WC   =   100.;   INIMIX=   1;  MIXPRE=   1;  MAXMIX= -45

 Intra band minimization:
   WEIMIN = 0.0000     energy-eigenvalue tresh-hold
   EBREAK =  0.13E-08  absolut break condition
   DEPER  =   0.30     relativ break condition  

   TIME   =   0.40     timestep for ELM

  volume/ion in A,a.u.               =    7145.83     48222.46
  Fermi-wavevector in a.u.,A,eV,Ry     =   0.148499  0.280622  0.300035  0.022052
  Thomas-Fermi vector in A             =   0.821704
 
 Write flags
   LWAVE        =      T    write WAVECAR
   LDOWNSAMPLE  =      F    k-point downsampling of WAVECAR
   LCHARG       =      T    write CHGCAR
   LVTOT        =      F    write LOCPOT, total local potential
   LVHAR        =      F    write LOCPOT, Hartree potential only
   LELF         =      F    write electronic localiz. function (ELF)
   LORBIT       =      0    0 simple, 1 ext, 2 COOP (PROOUT), +10 PAW based schemes


 Dipole corrections
   LMONO  =      F    monopole corrections only (constant potential shift)
   LDIPOL =      F    correct potential (dipole corrections)
   IDIPOL =      4    1-x, 2-y, 3-z, 4-all directions 
   EPSILON=  1.0000000 bulk dielectric constant

 Exchange correlation treatment:
   GGA     =    --    GGA type
   LEXCH   =     8    internal setting for exchange type
   VOSKOWN=      0    Vosko Wilk Nusair interpolation
   LHFCALC =     F    Hartree Fock is set to
   LHFONE  =     F    Hartree Fock one center treatment
   AEXX    =    0.0000 exact exchange contribution

 Linear response parameters
   LEPSILON=     F    determine dielectric tensor
   LRPA    =     F    only Hartree local field effects (RPA)
   LNABLA  =     F    use nabla operator in PAW spheres
   LVEL    =     F    velocity operator in full k-point grid
   LINTERFAST=   F  fast interpolation
   KINTER  =     0    interpolate to denser k-point grid
   CSHIFT  =0.1000    complex shift for real part using Kramers Kronig
   OMEGAMAX=  -1.0    maximum frequency
   DEG_THRESHOLD= 0.2000000E-02 threshold for treating states as degnerate
   RTIME   =   -0.100 relaxation time in fs
  (WPLASMAI=    0.000 imaginary part of plasma frequency in eV, 0.658/RTIME)
   DFIELD  = 0.0000000 0.0000000 0.0000000 field for delta impulse in time
 
 Orbital magnetization related:
   ORBITALMAG=     F  switch on orbital magnetization
   LCHIMAG   =     F  perturbation theory with respect to B field
   DQ        =  0.001000  dq finite difference perturbation B field
   LLRAUG    =     F  two centre corrections for induced B field



--------------------------------------------------------------------------------------------------------


 Static calculation
 charge density and potential will be updated during run
 non-spin polarized calculation
 Variant of blocked Davidson
 Davidson routine will perform the subspace rotation
 perform sub-space diagonalisation
    after iterative eigenvector-optimisation
 modified Broyden-mixing scheme, WC =      100.0
 initial mixing is a Kerker type mixing with AMIX =  0.4000 and BMIX =      1.0000
 Hartree-type preconditioning will be used
 using additional bands             4
 reciprocal scheme for non local part
 use partial core corrections
 calculate Harris-corrections to forces 
   (improved forces if not selfconsistent)
 use gradient corrections 
 use of overlap-Matrix (Vanderbilt PP)
 Gauss-broadening in eV      SIGMA  =   0.01


--------------------------------------------------------------------------------------------------------


  energy-cutoff  :     1600.00
  volume of cell :    42875.00
      direct lattice vectors                 reciprocal lattice vectors
    35.000000000  0.000000000  0.000000000     0.028571429  0.000000000  0.000000000
     0.000000000 35.000000000  0.000000000     0.000000000  0.028571429  0.000000000
     0.000000000  0.000000000 35.000000000     0.000000000  0.000000000  0.028571429

  length of vectors
    35.000000000 35.000000000 35.000000000     0.028571429  0.028571429  0.028571429


 
 k-points in units of 2pi/SCALE and weight: automatic mesh                          
   0.00000000  0.00000000  0.00000000       1.000
 
 k-points in reciprocal lattice and weights: automatic mesh                          
   0.00000000  0.00000000  0.00000000       1.000
 
 position of ions in fractional coordinates (direct lattice) 
   0.00000000  0.00162817  0.00000000
   0.00000000  0.18849789  0.00000000
   0.00000000  0.03506303  0.00000000
   0.00000000  0.96819331  0.00000000
   0.00000000  0.15506303  0.00000000
   0.00000000  0.22193274  0.00000000
 
 position of ions in cartesian coordinates  (Angst):
   0.00000000  0.05698600  0.00000000
   0.00000000  6.59742600  0.00000000
   0.00000000  1.22720600  0.00000000
   0.00000000 33.88676600  0.00000000
   0.00000000  5.42720600  0.00000000
   0.00000000  7.76764600  0.00000000
 


--------------------------------------------------------------------------------------------------------


 use parallel FFT for orbitals z direction half grid
 k-point   1 :   0.0000 0.0000 0.0000  plane waves: 3115599

 maximum and minimum number of plane-waves per node :    389462   389421

 maximum number of plane-waves:   3115599
 maximum index in each direction: 
   IXMAX=  114   IYMAX=  114   IZMAX=  114
   IXMIN= -114   IYMIN= -114   IZMIN=    0


 parallel 3D FFT for wavefunctions:
    minimum data exchange during FFTs selected (reduces bandwidth)
 parallel 3D FFT for charge:
    minimum data exchange during FFTs selected (reduces bandwidth)


 total amount of memory used by VASP MPI-rank0  5977588. kBytes
=======================================================================

   base      :      30000. kBytes
   nonl-proj :      87230. kBytes
   fftplans  :    2143445. kBytes
   grid      :    3654604. kBytes
   one-center:          1. kBytes
   wavefun   :      62308. kBytes
 
     INWAV:  cpu time    0.0000: real time    0.0000
 Broyden mixing: mesh for mixing (old mesh)
   NGX =229   NGY =229   NGZ =229
  (NGX  =960   NGY  =960   NGZ  =960)
  gives a total of ****** points

 initial charge density was supplied:
 charge density of overlapping atoms calculated
 number of electron      32.0000000 magnetization 
 keeping initial charge density in first step


--------------------------------------------------------------------------------------------------------


 Maximum index for augmentation-charges          2082 (set IRDMAX)


--------------------------------------------------------------------------------------------------------


 First call to EWALD:  gamma=   0.051
 Maximum number of real-space cells 3x 3x 3
 Maximum number of reciprocal cells 3x 3x 3

    FEWALD:  cpu time    0.0007: real time    0.0007


--------------------------------------- Iteration      1(   1)  ---------------------------------------


    POTLOK:  cpu time   39.5367: real time   39.5837
    SETDIJ:  cpu time    0.0532: real time    0.0555
     EDDAV:  cpu time   26.2417: real time   26.3030
       DOS:  cpu time    0.0188: real time    0.0188
    --------------------------------------------
      LOOP:  cpu time   65.8504: real time   65.9610

 eigenvalue-minimisations  :    56
 total energy-change (2. order) : 0.3485760E+03  (-0.6585851E+03)
 number of electron      32.0000000 magnetization 
 augmentation part       32.0000000 magnetization 

 Free energy of the ion-electron system (eV)
  ---------------------------------------------------
  alpha Z        PSCENC =         0.09979497
  Ewald energy   TEWEN  =      1629.47387701
  -Hartree energ DENC   =     -3239.86245249
  -exchange      EXHF   =         0.00000000
  -V(xc)+E(xc)   XCENC  =       135.14780037
  PAW double counting   =      1603.24200032    -1611.57549460
  entropy T*S    EENTRO =        -0.00000000
  eigenvalues    EBANDS =      -191.77436811
  atomic energy  EATOM  =      2023.82482173
  Solvation  Ediel_sol  =         0.00000000
  ---------------------------------------------------
  free energy    TOTEN  =       348.57597920 eV

  energy without entropy =      348.57597920  energy(sigma->0) =      348.57597920


--------------------------------------------------------------------------------------------------------




--------------------------------------- Iteration      1(   2)  ---------------------------------------


     EDDAV:  cpu time   31.5557: real time   31.6041
       DOS:  cpu time    0.0040: real time    0.0040
    --------------------------------------------
      LOOP:  cpu time   31.5597: real time   31.6081

 eigenvalue-minimisations  :    72
 total energy-change (2. order) :-0.1853795E+03  (-0.1851897E+03)
 number of electron      32.0000000 magnetization 
 augmentation part       32.0000000 magnetization 

 Free energy of the ion-electron system (eV)
  ---------------------------------------------------
  alpha Z        PSCENC =         0.09979497
  Ewald energy   TEWEN  =      1629.47387701
  -Hartree energ DENC   =     -3239.86245249
  -exchange      EXHF   =         0.00000000
  -V(xc)+E(xc)   XCENC  =       135.14780037
  PAW double counting   =      1603.24200032    -1611.57549460
  entropy T*S    EENTRO =        -0.00000000
  eigenvalues    EBANDS =      -377.15386430
  atomic energy  EATOM  =      2023.82482173
  Solvation  Ediel_sol  =         0.00000000
  ---------------------------------------------------
  free energy    TOTEN  =       163.19648301 eV

  energy without entropy =      163.19648301  energy(sigma->0) =      163.19648301


--------------------------------------------------------------------------------------------------------




--------------------------------------- Iteration      1(   3)  ---------------------------------------


     EDDAV:  cpu time   28.9174: real time   28.9622
       DOS:  cpu time    0.0088: real time    0.0088
    --------------------------------------------
      LOOP:  cpu time   28.9262: real time   28.9711

 eigenvalue-minimisations  :    64
 total energy-change (2. order) :-0.1346920E+03  (-0.1308221E+03)
 number of electron      32.0000000 magnetization 
 augmentation part       32.0000000 magnetization 

 Free energy of the ion-electron system (eV)
  ---------------------------------------------------
  alpha Z        PSCENC =         0.09979497
  Ewald energy   TEWEN  =      1629.47387701
  -Hartree energ DENC   =     -3239.86245249
  -exchange      EXHF   =         0.00000000
  -V(xc)+E(xc)   XCENC  =       135.14780037
  PAW double counting   =      1603.24200032    -1611.57549460
  entropy T*S    EENTRO =        -0.00001160
  eigenvalues    EBANDS =      -511.84589566
  atomic energy  EATOM  =      2023.82482173
  Solvation  Ediel_sol  =         0.00000000
  ---------------------------------------------------
  free energy    TOTEN  =        28.50444005 eV

  energy without entropy =       28.50445164  energy(sigma->0) =       28.50444585


--------------------------------------------------------------------------------------------------------




--------------------------------------- Iteration      1(   4)  ---------------------------------------


     EDDAV:  cpu time   23.4722: real time   23.5099
       DOS:  cpu time    0.0055: real time    0.0055
    --------------------------------------------
      LOOP:  cpu time   23.4776: real time   23.5154

 eigenvalue-minimisations  :    48
 total energy-change (2. order) :-0.6542354E+02  (-0.5413047E+02)
 number of electron      32.0000000 magnetization 
 augmentation part       32.0000000 magnetization 

 Free energy of the ion-electron system (eV)
  ---------------------------------------------------
  alpha Z        PSCENC =         0.09979497
  Ewald energy   TEWEN  =      1629.47387701
  -Hartree energ DENC   =     -3239.86245249
  -exchange      EXHF   =         0.00000000
  -V(xc)+E(xc)   XCENC  =       135.14780037
  PAW double counting   =      1603.24200032    -1611.57549460
  entropy T*S    EENTRO =        -0.00000000
  eigenvalues    EBANDS =      -577.26945224
  atomic energy  EATOM  =      2023.82482173
  Solvation  Ediel_sol  =         0.00000000
  ---------------------------------------------------
  free energy    TOTEN  =       -36.91910494 eV

  energy without entropy =      -36.91910494  energy(sigma->0) =      -36.91910494


--------------------------------------------------------------------------------------------------------




--------------------------------------- Iteration      1(   5)  ---------------------------------------


     EDDAV:  cpu time   22.1367: real time   22.1716
       DOS:  cpu time    0.0041: real time    0.0041
    CHARGE:  cpu time   20.5790: real time   20.6034
    MIXING:  cpu time    1.1121: real time    1.1132
    --------------------------------------------
      LOOP:  cpu time   43.8319: real time   43.8922

 eigenvalue-minimisations  :    44
 total energy-change (2. order) :-0.1231552E+02  (-0.1231174E+02)
 number of electron      31.9999999 magnetization 
 augmentation part        3.0005777 magnetization 

 Broyden mixing:
  rms(total) = 0.13003E+01    rms(broyden)= 0.13003E+01
  rms(prec ) = 0.13266E+01
  weight for this iteration     100.00

 Free energy of the ion-electron system (eV)
  ---------------------------------------------------
  alpha Z        PSCENC =         0.09979497
  Ewald energy   TEWEN  =      1629.47387701
  -Hartree energ DENC   =     -3239.86245249
  -exchange      EXHF   =         0.00000000
  -V(xc)+E(xc)   XCENC  =       135.14780037
  PAW double counting   =      1603.24200032    -1611.57549460
  entropy T*S    EENTRO =        -0.00000000
  eigenvalues    EBANDS =      -589.58497679
  atomic energy  EATOM  =      2023.82482173
  Solvation  Ediel_sol  =         0.00000000
  ---------------------------------------------------
  free energy    TOTEN  =       -49.23462948 eV

  energy without entropy =      -49.23462948  energy(sigma->0) =      -49.23462948


--------------------------------------------------------------------------------------------------------




--------------------------------------- Iteration      1(   6)  ---------------------------------------


    POTLOK:  cpu time   39.5579: real time   39.6056
    SETDIJ:  cpu time    0.0634: real time    0.0635
     EDDAV:  cpu time   23.3974: real time   23.4355
       DOS:  cpu time    0.0093: real time    0.0093
    CHARGE:  cpu time   20.3806: real time   20.4060
    MIXING:  cpu time    0.7947: real time    0.8002
    --------------------------------------------
      LOOP:  cpu time   84.2034: real time   84.3200

 eigenvalue-minimisations  :    48
 total energy-change (2. order) : 0.2896877E+01  (-0.1638949E+01)
 number of electron      31.9999999 magnetization 
 augmentation part        2.6839125 magnetization 

 Broyden mixing:
  rms(total) = 0.59435E+00    rms(broyden)= 0.59435E+00
  rms(prec ) = 0.59965E+00
  weight for this iteration     100.00

 eigenvalues of (default mixing * dielectric matrix)
  average eigenvalue GAMMA=   1.1144
  1.1144

 Free energy of the ion-electron system (eV)
  ---------------------------------------------------
  alpha Z        PSCENC =         0.09979497
  Ewald energy   TEWEN  =      1629.47387701
  -Hartree energ DENC   =     -3290.84775574
  -exchange      EXHF   =         0.00000000
  -V(xc)+E(xc)   XCENC  =       138.17251872
  PAW double counting   =      2131.68113028    -2140.75273741
  entropy T*S    EENTRO =        -0.00000000
  eigenvalues    EBANDS =      -537.98940208
  atomic energy  EATOM  =      2023.82482173
  Solvation  Ediel_sol  =         0.00000000
  ---------------------------------------------------
  free energy    TOTEN  =       -46.33775251 eV

  energy without entropy =      -46.33775251  energy(sigma->0) =      -46.33775251


--------------------------------------------------------------------------------------------------------




--------------------------------------- Iteration      1(   7)  ---------------------------------------


    POTLOK:  cpu time   39.6463: real time   39.6939
    SETDIJ:  cpu time    0.0600: real time    0.0600
     EDDAV:  cpu time   23.4792: real time   23.5166
       DOS:  cpu time    0.0096: real time    0.0096
    CHARGE:  cpu time   20.4924: real time   20.5166
    MIXING:  cpu time    1.1260: real time    1.1272
    --------------------------------------------
      LOOP:  cpu time   84.8135: real time   84.9239

 eigenvalue-minimisations  :    48
 total energy-change (2. order) : 0.2610288E+00  (-0.4094388E-01)
 number of electron      31.9999999 magnetization 
 augmentation part        2.6927271 magnetization 

 Broyden mixing:
  rms(total) = 0.32079E+00    rms(broyden)= 0.32079E+00
  rms(prec ) = 0.32391E+00
  weight for this iteration     100.00

 eigenvalues of (default mixing * dielectric matrix)
  average eigenvalue GAMMA=   1.6909
  1.0097  2.3722

 Free energy of the ion-electron system (eV)
  ---------------------------------------------------
  alpha Z        PSCENC =         0.09979497
  Ewald energy   TEWEN  =      1629.47387701
  -Hartree energ DENC   =     -3303.65930636
  -exchange      EXHF   =         0.00000000
  -V(xc)+E(xc)   XCENC  =       138.75550485
  PAW double counting   =      2530.45671469    -2539.43781140
  entropy T*S    EENTRO =        -0.00000000
  eigenvalues    EBANDS =      -525.59031915
  atomic energy  EATOM  =      2023.82482173
  Solvation  Ediel_sol  =         0.00000000
  ---------------------------------------------------
  free energy    TOTEN  =       -46.07672366 eV

  energy without entropy =      -46.07672366  energy(sigma->0) =      -46.07672366


--------------------------------------------------------------------------------------------------------




--------------------------------------- Iteration      1(   8)  ---------------------------------------


    POTLOK:  cpu time   39.7099: real time   39.7576
    SETDIJ:  cpu time    0.0659: real time    0.0659
     EDDAV:  cpu time   23.3834: real time   23.4207
       DOS:  cpu time    0.0034: real time    0.0034
    CHARGE:  cpu time   20.4691: real time   20.4927
    MIXING:  cpu time    1.0230: real time    1.0243
    --------------------------------------------
      LOOP:  cpu time   84.6547: real time   84.7645

 eigenvalue-minimisations  :    48
 total energy-change (2. order) : 0.9932850E-01  (-0.4688826E-01)
 number of electron      31.9999999 magnetization 
 augmentation part        2.6886754 magnetization 

 Broyden mixing:
  rms(total) = 0.74148E-01    rms(broyden)= 0.74148E-01
  rms(prec ) = 0.76442E-01
  weight for this iteration     100.00

 eigenvalues of (default mixing * dielectric matrix)
  average eigenvalue GAMMA=   1.1762
  2.3818  1.0073  0.1395

 Free energy of the ion-electron system (eV)
  ---------------------------------------------------
  alpha Z        PSCENC =         0.09979497
  Ewald energy   TEWEN  =      1629.47387701
  -Hartree energ DENC   =     -3319.22727601
  -exchange      EXHF   =         0.00000000
  -V(xc)+E(xc)   XCENC  =       139.48783716
  PAW double counting   =      3072.00795622    -3080.98596971
  entropy T*S    EENTRO =        -0.00000000
  eigenvalues    EBANDS =      -510.65843653
  atomic energy  EATOM  =      2023.82482173
  Solvation  Ediel_sol  =         0.00000000
  ---------------------------------------------------
  free energy    TOTEN  =       -45.97739516 eV

  energy without entropy =      -45.97739516  energy(sigma->0) =      -45.97739516


--------------------------------------------------------------------------------------------------------




--------------------------------------- Iteration      1(   9)  ---------------------------------------


    POTLOK:  cpu time   39.6751: real time   39.7224
    SETDIJ:  cpu time    0.0653: real time    0.0653
     EDDAV:  cpu time   23.4896: real time   23.5270
       DOS:  cpu time    0.0082: real time    0.0082
    CHARGE:  cpu time   20.1990: real time   20.2227
    MIXING:  cpu time    1.1734: real time    1.1747
    --------------------------------------------
      LOOP:  cpu time   84.6105: real time   84.7203

 eigenvalue-minimisations  :    48
 total energy-change (2. order) : 0.1220662E-02  (-0.1651174E-02)
 number of electron      31.9999999 magnetization 
 augmentation part        2.6878276 magnetization 

 Broyden mixing:
  rms(total) = 0.67745E-01    rms(broyden)= 0.67745E-01
  rms(prec ) = 0.69979E-01
  weight for this iteration     100.00

 eigenvalues of (default mixing * dielectric matrix)
  average eigenvalue GAMMA=   1.2524
  2.4248  0.9854  0.7997  0.7997

 Free energy of the ion-electron system (eV)
  ---------------------------------------------------
  alpha Z        PSCENC =         0.09979497
  Ewald energy   TEWEN  =      1629.47387701
  -Hartree energ DENC   =     -3319.26578768
  -exchange      EXHF   =         0.00000000
  -V(xc)+E(xc)   XCENC  =       139.49067468
  PAW double counting   =      3077.49596218    -3086.47233763
  entropy T*S    EENTRO =        -0.00000000
  eigenvalues    EBANDS =      -510.62317976
  atomic energy  EATOM  =      2023.82482173
  Solvation  Ediel_sol  =         0.00000000
  ---------------------------------------------------
  free energy    TOTEN  =       -45.97617450 eV

  energy without entropy =      -45.97617450  energy(sigma->0) =      -45.97617450


--------------------------------------------------------------------------------------------------------




--------------------------------------- Iteration      1(  10)  ---------------------------------------


    POTLOK:  cpu time   39.7193: real time   39.7665
    SETDIJ:  cpu time    0.0614: real time    0.0614
     EDDAV:  cpu time   23.3942: real time   23.4311
       DOS:  cpu time    0.0215: real time    0.0216
    CHARGE:  cpu time   20.4141: real time   20.4378
    MIXING:  cpu time    1.0988: real time    1.1001
    --------------------------------------------
      LOOP:  cpu time   84.7093: real time   84.8185

 eigenvalue-minimisations  :    48
 total energy-change (2. order) : 0.5870259E-02  (-0.3445412E-02)
 number of electron      31.9999999 magnetization 
 augmentation part        2.6732229 magnetization 

 Broyden mixing:
  rms(total) = 0.45112E-01    rms(broyden)= 0.45112E-01
  rms(prec ) = 0.46339E-01
  weight for this iteration     100.00

 eigenvalues of (default mixing * dielectric matrix)
  average eigenvalue GAMMA=   1.4212
  2.3791  2.0155  1.0070  1.0070  0.6975

 Free energy of the ion-electron system (eV)
  ---------------------------------------------------
  alpha Z        PSCENC =         0.09979497
  Ewald energy   TEWEN  =      1629.47387701
  -Hartree energ DENC   =     -3320.61186176
  -exchange      EXHF   =         0.00000000
  -V(xc)+E(xc)   XCENC  =       139.56601387
  PAW double counting   =      3098.24723394    -3107.18863813
  entropy T*S    EENTRO =        -0.00000000
  eigenvalues    EBANDS =      -509.38154588
  atomic energy  EATOM  =      2023.82482173
  Solvation  Ediel_sol  =         0.00000000
  ---------------------------------------------------
  free energy    TOTEN  =       -45.97030424 eV

  energy without entropy =      -45.97030424  energy(sigma->0) =      -45.97030424


--------------------------------------------------------------------------------------------------------




--------------------------------------- Iteration      1(  11)  ---------------------------------------


    POTLOK:  cpu time   39.8419: real time   39.8887
    SETDIJ:  cpu time    0.0507: real time    0.0508
     EDDAV:  cpu time   23.4588: real time   23.4953
       DOS:  cpu time    0.0014: real time    0.0014
    CHARGE:  cpu time   20.4250: real time   20.4488
    MIXING:  cpu time    1.0953: real time    1.0966
    --------------------------------------------
      LOOP:  cpu time   84.8732: real time   84.9817

 eigenvalue-minimisations  :    48
 total energy-change (2. order) :-0.3201224E-02  (-0.1782406E-02)
 number of electron      31.9999999 magnetization 
 augmentation part        2.6737937 magnetization 

 Broyden mixing:
  rms(total) = 0.20864E-01    rms(broyden)= 0.20864E-01
  rms(prec ) = 0.21478E-01
  weight for this iteration     100.00

 eigenvalues of (default mixing * dielectric matrix)
  average eigenvalue GAMMA=   1.4322
  2.4406  2.1534  1.2544  0.9986  0.9986  0.7474

 Free energy of the ion-electron system (eV)
  ---------------------------------------------------
  alpha Z        PSCENC =         0.09979497
  Ewald energy   TEWEN  =      1629.47387701
  -Hartree energ DENC   =     -3320.27581799
  -exchange      EXHF   =         0.00000000
  -V(xc)+E(xc)   XCENC  =       139.51301567
  PAW double counting   =      3110.49705426    -3119.34870259
  entropy T*S    EENTRO =        -0.00000000
  eigenvalues    EBANDS =      -509.75754852
  atomic energy  EATOM  =      2023.82482173
  Solvation  Ediel_sol  =         0.00000000
  ---------------------------------------------------
  free energy    TOTEN  =       -45.97350546 eV

  energy without entropy =      -45.97350546  energy(sigma->0) =      -45.97350546


--------------------------------------------------------------------------------------------------------




--------------------------------------- Iteration      1(  12)  ---------------------------------------


    POTLOK:  cpu time   39.7554: real time   39.8022
    SETDIJ:  cpu time    0.0617: real time    0.0618
     EDDAV:  cpu time   28.8746: real time   28.9205
       DOS:  cpu time    0.0049: real time    0.0049
    CHARGE:  cpu time   20.3957: real time   20.4195
    MIXING:  cpu time    0.9571: real time    0.9585
    --------------------------------------------
      LOOP:  cpu time   90.0495: real time   90.1675

 eigenvalue-minimisations  :    64
 total energy-change (2. order) :-0.3213782E-02  (-0.1432868E-03)
 number of electron      31.9999999 magnetization 
 augmentation part        2.6732945 magnetization 

 Broyden mixing:
  rms(total) = 0.19292E-01    rms(broyden)= 0.19292E-01
  rms(prec ) = 0.19896E-01
  weight for this iteration     100.00

 eigenvalues of (default mixing * dielectric matrix)
  average eigenvalue GAMMA=   1.4859
  2.3364  2.3364  1.4412  1.4412  1.0531  1.0531  0.7398

 Free energy of the ion-electron system (eV)
  ---------------------------------------------------
  alpha Z        PSCENC =         0.09979497
  Ewald energy   TEWEN  =      1629.47387701
  -Hartree energ DENC   =     -3320.54940394
  -exchange      EXHF   =         0.00000000
  -V(xc)+E(xc)   XCENC  =       139.50805232
  PAW double counting   =      3112.43386305    -3121.31921152
  entropy T*S    EENTRO =        -0.00000000
  eigenvalues    EBANDS =      -509.44851287
  atomic energy  EATOM  =      2023.82482173
  Solvation  Ediel_sol  =         0.00000000
  ---------------------------------------------------
  free energy    TOTEN  =       -45.97671924 eV

  energy without entropy =      -45.97671924  energy(sigma->0) =      -45.97671924


--------------------------------------------------------------------------------------------------------




--------------------------------------- Iteration      1(  13)  ---------------------------------------


    POTLOK:  cpu time   39.7557: real time   39.8028
    SETDIJ:  cpu time    0.0580: real time    0.0580
     EDDAV:  cpu time   23.4870: real time   23.5250
       DOS:  cpu time    0.0085: real time    0.0085
    CHARGE:  cpu time   20.2388: real time   20.2626
    MIXING:  cpu time    1.2161: real time    1.2177
    --------------------------------------------
      LOOP:  cpu time   84.7641: real time   84.8745

 eigenvalue-minimisations  :    48
 total energy-change (2. order) :-0.3396988E-02  (-0.6029020E-03)
 number of electron      31.9999999 magnetization 
 augmentation part        2.6801717 magnetization 

 Broyden mixing:
  rms(total) = 0.67478E-02    rms(broyden)= 0.67478E-02
  rms(prec ) = 0.71677E-02
  weight for this iteration     100.00

 eigenvalues of (default mixing * dielectric matrix)
  average eigenvalue GAMMA=   1.4868
  2.7940  2.6021  1.5161  1.2164  1.2164  0.9150  0.9150  0.7193

 Free energy of the ion-electron system (eV)
  ---------------------------------------------------
  alpha Z        PSCENC =         0.09979497
  Ewald energy   TEWEN  =      1629.47387701
  -Hartree energ DENC   =     -3320.38811969
  -exchange      EXHF   =         0.00000000
  -V(xc)+E(xc)   XCENC  =       139.46544282
  PAW double counting   =      3106.97374853    -3115.89768097
  entropy T*S    EENTRO =        -0.00000000
  eigenvalues    EBANDS =      -509.53200065
  atomic energy  EATOM  =      2023.82482173
  Solvation  Ediel_sol  =         0.00000000
  ---------------------------------------------------
  free energy    TOTEN  =       -45.98011623 eV

  energy without entropy =      -45.98011623  energy(sigma->0) =      -45.98011623


--------------------------------------------------------------------------------------------------------




--------------------------------------- Iteration      1(  14)  ---------------------------------------


    POTLOK:  cpu time   39.7542: real time   39.8015
    SETDIJ:  cpu time    0.0565: real time    0.0565
     EDDAV:  cpu time   23.3767: real time   23.4140
       DOS:  cpu time    0.0082: real time    0.0082
    CHARGE:  cpu time   20.3094: real time   20.3329
    MIXING:  cpu time    1.1472: real time    1.1488
    --------------------------------------------
      LOOP:  cpu time   84.6522: real time   84.7618

 eigenvalue-minimisations  :    48
 total energy-change (2. order) :-0.1424113E-02  (-0.4293624E-04)
 number of electron      31.9999999 magnetization 
 augmentation part        2.6790703 magnetization 

 Broyden mixing:
  rms(total) = 0.62521E-02    rms(broyden)= 0.62521E-02
  rms(prec ) = 0.65077E-02
  weight for this iteration     100.00

 eigenvalues of (default mixing * dielectric matrix)
  average eigenvalue GAMMA=   1.5540
  3.3948  2.3835  2.3071  1.2256  1.2256  0.9621  0.9621  0.7143  0.8111

 Free energy of the ion-electron system (eV)
  ---------------------------------------------------
  alpha Z        PSCENC =         0.09979497
  Ewald energy   TEWEN  =      1629.47387701
  -Hartree energ DENC   =     -3320.73808766
  -exchange      EXHF   =         0.00000000
  -V(xc)+E(xc)   XCENC  =       139.47239705
  PAW double counting   =      3107.93058133    -3116.86040611
  entropy T*S    EENTRO =        -0.00000000
  eigenvalues    EBANDS =      -509.18451868
  atomic energy  EATOM  =      2023.82482173
  Solvation  Ediel_sol  =         0.00000000
  ---------------------------------------------------
  free energy    TOTEN  =       -45.98154035 eV

  energy without entropy =      -45.98154035  energy(sigma->0) =      -45.98154035


--------------------------------------------------------------------------------------------------------




--------------------------------------- Iteration      1(  15)  ---------------------------------------


    POTLOK:  cpu time   39.8568: real time   39.9051
    SETDIJ:  cpu time    0.0547: real time    0.0548
     EDDAV:  cpu time   23.4540: real time   23.4909
       DOS:  cpu time    0.0058: real time    0.0058
    CHARGE:  cpu time   20.5352: real time   20.5596
    MIXING:  cpu time    1.0920: real time    1.0936
    --------------------------------------------
      LOOP:  cpu time   84.9986: real time   85.1097

 eigenvalue-minimisations  :    48
 total energy-change (2. order) :-0.1609150E-02  (-0.2085215E-04)
 number of electron      31.9999999 magnetization 
 augmentation part        2.6790753 magnetization 

 Broyden mixing:
  rms(total) = 0.57828E-02    rms(broyden)= 0.57828E-02
  rms(prec ) = 0.59747E-02
  weight for this iteration     100.00

 eigenvalues of (default mixing * dielectric matrix)
  average eigenvalue GAMMA=   1.6270
  4.1916  2.4230  1.9294  1.9294  1.1474  1.1474  0.9807  0.7261  0.8977  0.8977

 Free energy of the ion-electron system (eV)
  ---------------------------------------------------
  alpha Z        PSCENC =         0.09979497
  Ewald energy   TEWEN  =      1629.47387701
  -Hartree energ DENC   =     -3321.16065335
  -exchange      EXHF   =         0.00000000
  -V(xc)+E(xc)   XCENC  =       139.48035093
  PAW double counting   =      3107.61226061    -3116.54113323
  entropy T*S    EENTRO =        -0.00000000
  eigenvalues    EBANDS =      -508.77246817
  atomic energy  EATOM  =      2023.82482173
  Solvation  Ediel_sol  =         0.00000000
  ---------------------------------------------------
  free energy    TOTEN  =       -45.98314950 eV

  energy without entropy =      -45.98314950  energy(sigma->0) =      -45.98314950


--------------------------------------------------------------------------------------------------------




--------------------------------------- Iteration      1(  16)  ---------------------------------------


    POTLOK:  cpu time   39.6579: real time   39.7056
    SETDIJ:  cpu time    0.0505: real time    0.0505
     EDDAV:  cpu time   23.3622: real time   23.3998
       DOS:  cpu time    0.0083: real time    0.0083
    CHARGE:  cpu time   20.2275: real time   20.2511
    MIXING:  cpu time    1.3114: real time    1.3131
    --------------------------------------------
      LOOP:  cpu time   84.6178: real time   84.7284

 eigenvalue-minimisations  :    48
 total energy-change (2. order) :-0.1020389E-02  (-0.4023791E-04)
 number of electron      31.9999999 magnetization 
 augmentation part        2.6772276 magnetization 

 Broyden mixing:
  rms(total) = 0.11273E-02    rms(broyden)= 0.11273E-02
  rms(prec ) = 0.13091E-02
  weight for this iteration     100.00

 eigenvalues of (default mixing * dielectric matrix)
  average eigenvalue GAMMA=   1.6920
  5.0804  2.4600  2.4600  1.3685  1.3685  1.1560  0.7210  1.0128  1.0128  0.9861
  0.9861

 Free energy of the ion-electron system (eV)
  ---------------------------------------------------
  alpha Z        PSCENC =         0.09979497
  Ewald energy   TEWEN  =      1629.47387701
  -Hartree energ DENC   =     -3321.58409013
  -exchange      EXHF   =         0.00000000
  -V(xc)+E(xc)   XCENC  =       139.49422960
  PAW double counting   =      3107.76446016    -3116.67545953
  entropy T*S    EENTRO =        -0.00000000
  eigenvalues    EBANDS =      -508.38180369
  atomic energy  EATOM  =      2023.82482173
  Solvation  Ediel_sol  =         0.00000000
  ---------------------------------------------------
  free energy    TOTEN  =       -45.98416988 eV

  energy without entropy =      -45.98416988  energy(sigma->0) =      -45.98416988


--------------------------------------------------------------------------------------------------------




--------------------------------------- Iteration      1(  17)  ---------------------------------------


    POTLOK:  cpu time   39.6582: real time   39.7061
    SETDIJ:  cpu time    0.0567: real time    0.0568
     EDDAV:  cpu time   23.4563: real time   23.4935
       DOS:  cpu time    0.0046: real time    0.0046
    CHARGE:  cpu time   20.6560: real time   20.6802
    MIXING:  cpu time    1.2181: real time    1.2199
    --------------------------------------------
      LOOP:  cpu time   85.0500: real time   85.1610

 eigenvalue-minimisations  :    48
 total energy-change (2. order) :-0.7532487E-03  (-0.6655008E-05)
 number of electron      31.9999999 magnetization 
 augmentation part        2.6775137 magnetization 

 Broyden mixing:
  rms(total) = 0.10864E-02    rms(broyden)= 0.10864E-02
  rms(prec ) = 0.11713E-02
  weight for this iteration     100.00

 eigenvalues of (default mixing * dielectric matrix)
  average eigenvalue GAMMA=   1.7821
  5.6407  2.6360  2.6360  2.1008  1.2814  1.2814  1.1719  1.1719  0.9537  0.9537
  0.7195  0.8382

 Free energy of the ion-electron system (eV)
  ---------------------------------------------------
  alpha Z        PSCENC =         0.09979497
  Ewald energy   TEWEN  =      1629.47387701
  -Hartree energ DENC   =     -3321.73471600
  -exchange      EXHF   =         0.00000000
  -V(xc)+E(xc)   XCENC  =       139.49454666
  PAW double counting   =      3107.40377450    -3116.31411836
  entropy T*S    EENTRO =        -0.00000000
  eigenvalues    EBANDS =      -508.23290364
  atomic energy  EATOM  =      2023.82482173
  Solvation  Ediel_sol  =         0.00000000
  ---------------------------------------------------
  free energy    TOTEN  =       -45.98492313 eV

  energy without entropy =      -45.98492313  energy(sigma->0) =      -45.98492313


--------------------------------------------------------------------------------------------------------




--------------------------------------- Iteration      1(  18)  ---------------------------------------


    POTLOK:  cpu time   39.6215: real time   39.6696
    SETDIJ:  cpu time    0.0491: real time    0.0491
     EDDAV:  cpu time   23.4340: real time   23.4712
       DOS:  cpu time    0.0042: real time    0.0042
    CHARGE:  cpu time   20.3067: real time   20.3308
    MIXING:  cpu time    1.3732: real time    1.3750
    --------------------------------------------
      LOOP:  cpu time   84.7887: real time   84.8998

 eigenvalue-minimisations  :    48
 total energy-change (2. order) :-0.6562545E-03  (-0.3385801E-05)
 number of electron      31.9999999 magnetization 
 augmentation part        2.6773424 magnetization 

 Broyden mixing:
  rms(total) = 0.10524E-02    rms(broyden)= 0.10524E-02
  rms(prec ) = 0.10961E-02
  weight for this iteration     100.00

 eigenvalues of (default mixing * dielectric matrix)
  average eigenvalue GAMMA=   1.8558
  6.5977  3.4356  2.3347  1.9347  1.9347  1.1528  1.1528  0.9750  0.9750  1.1553
  0.7210  0.8782  0.8782

 Free energy of the ion-electron system (eV)
  ---------------------------------------------------
  alpha Z        PSCENC =         0.09979497
  Ewald energy   TEWEN  =      1629.47387701
  -Hartree energ DENC   =     -3321.77481799
  -exchange      EXHF   =         0.00000000
  -V(xc)+E(xc)   XCENC  =       139.49271781
  PAW double counting   =      3107.75921838    -3116.66892998
  entropy T*S    EENTRO =        -0.00000000
  eigenvalues    EBANDS =      -508.19226132
  atomic energy  EATOM  =      2023.82482173
  Solvation  Ediel_sol  =         0.00000000
  ---------------------------------------------------
  free energy    TOTEN  =       -45.98557939 eV

  energy without entropy =      -45.98557939  energy(sigma->0) =      -45.98557939


--------------------------------------------------------------------------------------------------------




--------------------------------------- Iteration      1(  19)  ---------------------------------------


    POTLOK:  cpu time   39.5020: real time   39.5500
    SETDIJ:  cpu time    0.0561: real time    0.0561
     EDDAV:  cpu time   23.5551: real time   23.5922
       DOS:  cpu time    0.0100: real time    0.0100
    CHARGE:  cpu time   20.4344: real time   20.4590
    MIXING:  cpu time    1.4816: real time    1.4834
    --------------------------------------------
      LOOP:  cpu time   85.0392: real time   85.1507

 eigenvalue-minimisations  :    48
 total energy-change (2. order) :-0.2740979E-03  (-0.1310751E-05)
 number of electron      31.9999999 magnetization 
 augmentation part        2.6775787 magnetization 

 Broyden mixing:
  rms(total) = 0.26647E-03    rms(broyden)= 0.26647E-03
  rms(prec ) = 0.30572E-03
  weight for this iteration     100.00

 eigenvalues of (default mixing * dielectric matrix)
  average eigenvalue GAMMA=   1.9333
  7.1190  4.0334  2.4449  2.0277  2.0277  1.3340  1.3340  1.1891  1.1891  0.9597
  0.9597  0.7196  0.8641  0.8641

 Free energy of the ion-electron system (eV)
  ---------------------------------------------------
  alpha Z        PSCENC =         0.09979497
  Ewald energy   TEWEN  =      1629.47387701
  -Hartree energ DENC   =     -3321.76874503
  -exchange      EXHF   =         0.00000000
  -V(xc)+E(xc)   XCENC  =       139.48998097
  PAW double counting   =      3107.64055504    -3116.55350150
  entropy T*S    EENTRO =        -0.00000000
  eigenvalues    EBANDS =      -508.19263668
  atomic energy  EATOM  =      2023.82482173
  Solvation  Ediel_sol  =         0.00000000
  ---------------------------------------------------
  free energy    TOTEN  =       -45.98585349 eV

  energy without entropy =      -45.98585349  energy(sigma->0) =      -45.98585349


--------------------------------------------------------------------------------------------------------




--------------------------------------- Iteration      1(  20)  ---------------------------------------


    POTLOK:  cpu time   39.5544: real time   39.6027
    SETDIJ:  cpu time    0.0587: real time    0.0588
     EDDAV:  cpu time   26.2695: real time   26.3110
       DOS:  cpu time    0.0004: real time    0.0004
    CHARGE:  cpu time   20.6056: real time   20.6300
    MIXING:  cpu time    1.5512: real time    1.5532
    --------------------------------------------
      LOOP:  cpu time   88.0399: real time   88.1561

 eigenvalue-minimisations  :    56
 total energy-change (2. order) :-0.1813161E-03  (-0.6856878E-06)
 number of electron      31.9999999 magnetization 
 augmentation part        2.6776324 magnetization 

 Broyden mixing:
  rms(total) = 0.29577E-03    rms(broyden)= 0.29577E-03
  rms(prec ) = 0.31058E-03
  weight for this iteration     100.00

 eigenvalues of (default mixing * dielectric matrix)
  average eigenvalue GAMMA=   2.0422
  8.0606  4.6649  2.6476  2.5916  1.8485  1.8485  1.3627  1.1276  1.1276  0.9719
  0.9719  0.9302  0.9302  0.7192  0.8298

 Free energy of the ion-electron system (eV)
  ---------------------------------------------------
  alpha Z        PSCENC =         0.09979497
  Ewald energy   TEWEN  =      1629.47387701
  -Hartree energ DENC   =     -3321.78554223
  -exchange      EXHF   =         0.00000000
  -V(xc)+E(xc)   XCENC  =       139.48964112
  PAW double counting   =      3107.63399726    -3116.54788329
  entropy T*S    EENTRO =        -0.00000000
  eigenvalues    EBANDS =      -508.17474137
  atomic energy  EATOM  =      2023.82482173
  Solvation  Ediel_sol  =         0.00000000
  ---------------------------------------------------
  free energy    TOTEN  =       -45.98603480 eV

  energy without entropy =      -45.98603480  energy(sigma->0) =      -45.98603480


--------------------------------------------------------------------------------------------------------




--------------------------------------- Iteration      1(  21)  ---------------------------------------


    POTLOK:  cpu time   39.3837: real time   39.4320
    SETDIJ:  cpu time    0.0504: real time    0.0504
     EDDAV:  cpu time   23.4132: real time   23.4497
       DOS:  cpu time    0.0057: real time    0.0057
    CHARGE:  cpu time   20.4699: real time   20.4939
    MIXING:  cpu time    1.5165: real time    1.5186
    --------------------------------------------
      LOOP:  cpu time   84.8394: real time   84.9504

 eigenvalue-minimisations  :    48
 total energy-change (2. order) :-0.1022074E-03  (-0.2746496E-06)
 number of electron      31.9999999 magnetization 
 augmentation part        2.6775343 magnetization 

 Broyden mixing:
  rms(total) = 0.12249E-03    rms(broyden)= 0.12249E-03
  rms(prec ) = 0.13102E-03
  weight for this iteration     100.00

 eigenvalues of (default mixing * dielectric matrix)
  average eigenvalue GAMMA=   2.0592
  8.4837  4.7972  3.0743  2.3594  1.9851  1.9851  1.3060  1.3060  1.1531  1.1531
  0.9624  0.9624  0.9838  0.7199  0.8581  0.8581

 Free energy of the ion-electron system (eV)
  ---------------------------------------------------
  alpha Z        PSCENC =         0.09979497
  Ewald energy   TEWEN  =      1629.47387701
  -Hartree energ DENC   =     -3321.81031952
  -exchange      EXHF   =         0.00000000
  -V(xc)+E(xc)   XCENC  =       139.49041343
  PAW double counting   =      3107.58457172    -3116.49792748
  entropy T*S    EENTRO =        -0.00000000
  eigenvalues    EBANDS =      -508.15136887
  atomic energy  EATOM  =      2023.82482173
  Solvation  Ediel_sol  =         0.00000000
  ---------------------------------------------------
  free energy    TOTEN  =       -45.98613701 eV

  energy without entropy =      -45.98613701  energy(sigma->0) =      -45.98613701


--------------------------------------------------------------------------------------------------------




--------------------------------------- Iteration      1(  22)  ---------------------------------------


    POTLOK:  cpu time   39.4889: real time   39.5368
    SETDIJ:  cpu time    0.0491: real time    0.0491
     EDDAV:  cpu time   17.9957: real time   18.0242
       DOS:  cpu time    0.0087: real time    0.0087
    CHARGE:  cpu time   20.4542: real time   20.4792
    MIXING:  cpu time    1.6946: real time    1.6968
    --------------------------------------------
      LOOP:  cpu time   79.6912: real time   79.7948

 eigenvalue-minimisations  :    32
 total energy-change (2. order) :-0.3133604E-04  (-0.2218100E-07)
 number of electron      31.9999999 magnetization 
 augmentation part        2.6775427 magnetization 

 Broyden mixing:
  rms(total) = 0.96490E-04    rms(broyden)= 0.96490E-04
  rms(prec ) = 0.10173E-03
  weight for this iteration     100.00

 eigenvalues of (default mixing * dielectric matrix)
  average eigenvalue GAMMA=   2.1198
  8.8578  5.3962  3.4107  2.4124  2.4124  1.8521  1.8521  1.1309  1.1309  1.2730
  0.9699  0.9699  0.9606  0.9606  0.7197  0.8636  0.8636

 Free energy of the ion-electron system (eV)
  ---------------------------------------------------
  alpha Z        PSCENC =         0.09979497
  Ewald energy   TEWEN  =      1629.47387701
  -Hartree energ DENC   =     -3321.81104628
  -exchange      EXHF   =         0.00000000
  -V(xc)+E(xc)   XCENC  =       139.49028444
  PAW double counting   =      3107.60705613    -3116.52004697
  entropy T*S    EENTRO =        -0.00000000
  eigenvalues    EBANDS =      -508.15090938
  atomic energy  EATOM  =      2023.82482173
  Solvation  Ediel_sol  =         0.00000000
  ---------------------------------------------------
  free energy    TOTEN  =       -45.98616835 eV

  energy without entropy =      -45.98616835  energy(sigma->0) =      -45.98616835


--------------------------------------------------------------------------------------------------------




--------------------------------------- Iteration      1(  23)  ---------------------------------------


    POTLOK:  cpu time   39.4244: real time   39.4717
    SETDIJ:  cpu time    0.0566: real time    0.0566
     EDDAV:  cpu time   20.7249: real time   20.7579
       DOS:  cpu time    0.0012: real time    0.0012
    CHARGE:  cpu time   20.3192: real time   20.3433
    MIXING:  cpu time    1.7244: real time    1.7268
    --------------------------------------------
      LOOP:  cpu time   82.2508: real time   82.3576

 eigenvalue-minimisations  :    40
 total energy-change (2. order) :-0.2483824E-04  (-0.3700830E-07)
 number of electron      31.9999999 magnetization 
 augmentation part        2.6775689 magnetization 

 Broyden mixing:
  rms(total) = 0.31831E-04    rms(broyden)= 0.31831E-04
  rms(prec ) = 0.34917E-04
  weight for this iteration     100.00

 eigenvalues of (default mixing * dielectric matrix)
  average eigenvalue GAMMA=   2.1685
  9.0546  5.7507  3.7568  2.7865  2.3950  1.9672  1.9672  1.3630  1.3630  1.1308
  1.1308  0.9686  0.9686  0.7197  1.0140  0.9229  0.9229  0.8504

 Free energy of the ion-electron system (eV)
  ---------------------------------------------------
  alpha Z        PSCENC =         0.09979497
  Ewald energy   TEWEN  =      1629.47387701
  -Hartree energ DENC   =     -3321.80724350
  -exchange      EXHF   =         0.00000000
  -V(xc)+E(xc)   XCENC  =       139.48994995
  PAW double counting   =      3107.57490277    -3116.48791895
  entropy T*S    EENTRO =        -0.00000000
  eigenvalues    EBANDS =      -508.15437717
  atomic energy  EATOM  =      2023.82482173
  Solvation  Ediel_sol  =         0.00000000
  ---------------------------------------------------
  free energy    TOTEN  =       -45.98619318 eV

  energy without entropy =      -45.98619318  energy(sigma->0) =      -45.98619318


--------------------------------------------------------------------------------------------------------




--------------------------------------- Iteration      1(  24)  ---------------------------------------


    POTLOK:  cpu time   39.3326: real time   39.3805
    SETDIJ:  cpu time    0.0564: real time    0.0564
     EDDAV:  cpu time   17.9777: real time   18.0060
       DOS:  cpu time    0.0028: real time    0.0028
    CHARGE:  cpu time   20.2407: real time   20.2647
    MIXING:  cpu time    1.8485: real time    1.8509
    --------------------------------------------
      LOOP:  cpu time   79.4587: real time   79.5614

 eigenvalue-minimisations  :    32
 total energy-change (2. order) :-0.9706947E-05  (-0.7146980E-08)
 number of electron      31.9999999 magnetization 
 augmentation part        2.6775751 magnetization 

 Broyden mixing:
  rms(total) = 0.43788E-04    rms(broyden)= 0.43788E-04
  rms(prec ) = 0.45421E-04
  weight for this iteration     100.00

 eigenvalues of (default mixing * dielectric matrix)
  average eigenvalue GAMMA=   2.2090
  9.3523  6.1760  4.2530  2.9563  2.4338  2.1026  1.8073  1.8073  1.1207  1.1207
  0.9710  0.9710  1.1811  1.1811  1.1472  0.7197  0.9427  0.8637  0.8637

 Free energy of the ion-electron system (eV)
  ---------------------------------------------------
  alpha Z        PSCENC =         0.09979497
  Ewald energy   TEWEN  =      1629.47387701
  -Hartree energ DENC   =     -3321.80845453
  -exchange      EXHF   =         0.00000000
  -V(xc)+E(xc)   XCENC  =       139.48994120
  PAW double counting   =      3107.57014416    -3116.48323638
  entropy T*S    EENTRO =        -0.00000000
  eigenvalues    EBANDS =      -508.15309105
  atomic energy  EATOM  =      2023.82482173
  Solvation  Ediel_sol  =         0.00000000
  ---------------------------------------------------
  free energy    TOTEN  =       -45.98620289 eV

  energy without entropy =      -45.98620289  energy(sigma->0) =      -45.98620289


--------------------------------------------------------------------------------------------------------




--------------------------------------- Iteration      1(  25)  ---------------------------------------


    POTLOK:  cpu time   39.3072: real time   39.3555
    SETDIJ:  cpu time    0.0583: real time    0.0584
     EDDAV:  cpu time   18.0076: real time   18.0362
       DOS:  cpu time    0.0007: real time    0.0007
    CHARGE:  cpu time   20.5004: real time   20.5247
    MIXING:  cpu time    1.7854: real time    1.7879
    --------------------------------------------
      LOOP:  cpu time   79.6596: real time   79.7633

 eigenvalue-minimisations  :    32
 total energy-change (2. order) :-0.4627220E-05  (-0.2842999E-08)
 number of electron      31.9999999 magnetization 
 augmentation part        2.6775685 magnetization 

 Broyden mixing:
  rms(total) = 0.17854E-04    rms(broyden)= 0.17854E-04
  rms(prec ) = 0.18574E-04
  weight for this iteration     100.00

 eigenvalues of (default mixing * dielectric matrix)
  average eigenvalue GAMMA=   2.2295
  9.5458  6.4019  4.5646  2.9646  2.4617  2.4617  1.9095  1.9095  1.3430  1.3430
  1.1264  1.1264  0.9692  0.9692  1.1124  0.7197  0.9634  0.9634  0.8668  0.8668

 Free energy of the ion-electron system (eV)
  ---------------------------------------------------
  alpha Z        PSCENC =         0.09979497
  Ewald energy   TEWEN  =      1629.47387701
  -Hartree energ DENC   =     -3321.81016803
  -exchange      EXHF   =         0.00000000
  -V(xc)+E(xc)   XCENC  =       139.49002286
  PAW double counting   =      3107.59334169    -3116.50636139
  entropy T*S    EENTRO =        -0.00000000
  eigenvalues    EBANDS =      -508.15153635
  atomic energy  EATOM  =      2023.82482173
  Solvation  Ediel_sol  =         0.00000000
  ---------------------------------------------------
  free energy    TOTEN  =       -45.98620752 eV

  energy without entropy =      -45.98620752  energy(sigma->0) =      -45.98620752


--------------------------------------------------------------------------------------------------------




--------------------------------------- Iteration      1(  26)  ---------------------------------------


    POTLOK:  cpu time   39.4810: real time   39.5287
    SETDIJ:  cpu time    0.0525: real time    0.0525
     EDDAV:  cpu time   18.0625: real time   18.0910
       DOS:  cpu time    0.0077: real time    0.0078
    CHARGE:  cpu time   20.3899: real time   20.4141
    MIXING:  cpu time    1.7737: real time    1.7762
    --------------------------------------------
      LOOP:  cpu time   79.7673: real time   79.8703

 eigenvalue-minimisations  :    32
 total energy-change (2. order) :-0.1783352E-05  (-0.3852115E-08)
 number of electron      31.9999999 magnetization 
 augmentation part        2.6775558 magnetization 

 Broyden mixing:
  rms(total) = 0.35080E-04    rms(broyden)= 0.35080E-04
  rms(prec ) = 0.35936E-04
  weight for this iteration     100.00

 eigenvalues of (default mixing * dielectric matrix)
  average eigenvalue GAMMA=   2.2497
  9.5941  6.6590  4.6846  3.1448  2.7048  2.7048  2.1097  1.7139  1.7139  1.3057
  1.3057  1.1266  1.1266  0.9692  0.9692  1.1193  0.7197  0.9115  0.9115  0.8742
  0.8742

 Free energy of the ion-electron system (eV)
  ---------------------------------------------------
  alpha Z        PSCENC =         0.09979497
  Ewald energy   TEWEN  =      1629.47387701
  -Hartree energ DENC   =     -3321.81126356
  -exchange      EXHF   =         0.00000000
  -V(xc)+E(xc)   XCENC  =       139.49009058
  PAW double counting   =      3107.59088322    -3116.50393139
  entropy T*S    EENTRO =        -0.00000000
  eigenvalues    EBANDS =      -508.15048186
  atomic energy  EATOM  =      2023.82482173
  Solvation  Ediel_sol  =         0.00000000
  ---------------------------------------------------
  free energy    TOTEN  =       -45.98620930 eV

  energy without entropy =      -45.98620930  energy(sigma->0) =      -45.98620930


--------------------------------------------------------------------------------------------------------




--------------------------------------- Iteration      1(  27)  ---------------------------------------


    POTLOK:  cpu time   39.2842: real time   39.3324
    SETDIJ:  cpu time    0.0540: real time    0.0540
     EDDAV:  cpu time   17.9492: real time   17.9778
       DOS:  cpu time    0.0029: real time    0.0029
    CHARGE:  cpu time   20.4993: real time   20.5236
    MIXING:  cpu time    1.6865: real time    1.6891
    --------------------------------------------
      LOOP:  cpu time   79.4761: real time   79.5799

 eigenvalue-minimisations  :    32
 total energy-change (2. order) :-0.1173552E-05  (-0.2669413E-08)
 number of electron      31.9999999 magnetization 
 augmentation part        2.6775667 magnetization 

 Broyden mixing:
  rms(total) = 0.18022E-04    rms(broyden)= 0.18022E-04
  rms(prec ) = 0.18287E-04
  weight for this iteration     100.00

 eigenvalues of (default mixing * dielectric matrix)
  average eigenvalue GAMMA=   2.2375
  9.6323  6.8910  4.8460  3.7355  2.6080  2.4166  2.4166  1.8098  1.8098  1.3514
  1.3514  1.1279  1.1279  0.9689  0.9689  1.0163  1.0163  0.7197  0.8797  0.8505
  0.8505  0.8292

 Free energy of the ion-electron system (eV)
  ---------------------------------------------------
  alpha Z        PSCENC =         0.09979497
  Ewald energy   TEWEN  =      1629.47387701
  -Hartree energ DENC   =     -3321.80922605
  -exchange      EXHF   =         0.00000000
  -V(xc)+E(xc)   XCENC  =       139.48996227
  PAW double counting   =      3107.58088004    -3116.49402294
  entropy T*S    EENTRO =        -0.00000000
  eigenvalues    EBANDS =      -508.15229752
  atomic energy  EATOM  =      2023.82482173
  Solvation  Ediel_sol  =         0.00000000
  ---------------------------------------------------
  free energy    TOTEN  =       -45.98621047 eV

  energy without entropy =      -45.98621047  energy(sigma->0) =      -45.98621047


--------------------------------------------------------------------------------------------------------




--------------------------------------- Iteration      1(  28)  ---------------------------------------


    POTLOK:  cpu time   39.4120: real time   39.4604
    SETDIJ:  cpu time    0.0717: real time    0.0717
     EDDAV:  cpu time   17.9953: real time   18.0239
       DOS:  cpu time    0.0089: real time    0.0089
    CHARGE:  cpu time   20.2387: real time   20.2628
    MIXING:  cpu time    2.0440: real time    2.0468
    --------------------------------------------
      LOOP:  cpu time   79.7705: real time   79.8745

 eigenvalue-minimisations  :    32
 total energy-change (2. order) :-0.3628215E-06  (-0.1727283E-08)
 number of electron      31.9999999 magnetization 
 augmentation part        2.6775706 magnetization 

 Broyden mixing:
  rms(total) = 0.27808E-04    rms(broyden)= 0.27808E-04
  rms(prec ) = 0.28355E-04
  weight for this iteration     100.00

 eigenvalues of (default mixing * dielectric matrix)
  average eigenvalue GAMMA=   2.2198
  9.6680  7.0033  5.0826  3.7889  2.5192  2.5192  2.4255  1.9151  1.9151  1.3908
  1.3908  1.1268  1.1268  0.9693  0.9693  1.0707  1.0707  0.7197  0.9420  0.8575
  0.8575  0.8630  0.8630

 Free energy of the ion-electron system (eV)
  ---------------------------------------------------
  alpha Z        PSCENC =         0.09979497
  Ewald energy   TEWEN  =      1629.47387701
  -Hartree energ DENC   =     -3321.80901761
  -exchange      EXHF   =         0.00000000
  -V(xc)+E(xc)   XCENC  =       139.48994735
  PAW double counting   =      3107.58257987    -3116.49570337
  entropy T*S    EENTRO =        -0.00000000
  eigenvalues    EBANDS =      -508.15251079
  atomic energy  EATOM  =      2023.82482173
  Solvation  Ediel_sol  =         0.00000000
  ---------------------------------------------------
  free energy    TOTEN  =       -45.98621084 eV

  energy without entropy =      -45.98621084  energy(sigma->0) =      -45.98621084


--------------------------------------------------------------------------------------------------------




--------------------------------------- Iteration      1(  29)  ---------------------------------------


    POTLOK:  cpu time   39.3622: real time   39.4106
    SETDIJ:  cpu time    0.0490: real time    0.0491
     EDDAV:  cpu time   17.9257: real time   17.9538
       DOS:  cpu time    0.0082: real time    0.0082
    CHARGE:  cpu time   20.5015: real time   20.5261
    MIXING:  cpu time    1.8588: real time    1.8616
    --------------------------------------------
      LOOP:  cpu time   79.7055: real time   79.8093

 eigenvalue-minimisations  :    32
 total energy-change (2. order) :-0.2270581E-06  (-0.1050537E-08)
 number of electron      31.9999999 magnetization 
 augmentation part        2.6775679 magnetization 

 Broyden mixing:
  rms(total) = 0.11189E-04    rms(broyden)= 0.11189E-04
  rms(prec ) = 0.11453E-04
  weight for this iteration     100.00

 eigenvalues of (default mixing * dielectric matrix)
  average eigenvalue GAMMA=   2.2078
  9.7294  7.1495  5.3333  3.9031  3.0146  2.3384  2.0171  2.0171  1.7840  1.5252
  1.5252  1.1323  1.1323  1.2705  0.9690  0.9690  1.0489  1.0489  1.0036  0.7197
  0.8791  0.8791  0.8433  0.7538

 Free energy of the ion-electron system (eV)
  ---------------------------------------------------
  alpha Z        PSCENC =         0.09979497
  Ewald energy   TEWEN  =      1629.47387701
  -Hartree energ DENC   =     -3321.80976551
  -exchange      EXHF   =         0.00000000
  -V(xc)+E(xc)   XCENC  =       139.48999476
  PAW double counting   =      3107.58388506    -3116.49696389
  entropy T*S    EENTRO =        -0.00000000
  eigenvalues    EBANDS =      -508.15185520
  atomic energy  EATOM  =      2023.82482173
  Solvation  Ediel_sol  =         0.00000000
  ---------------------------------------------------
  free energy    TOTEN  =       -45.98621106 eV

  energy without entropy =      -45.98621106  energy(sigma->0) =      -45.98621106


--------------------------------------------------------------------------------------------------------




--------------------------------------- Iteration      1(  30)  ---------------------------------------


    POTLOK:  cpu time   39.6437: real time   39.6917
    SETDIJ:  cpu time    0.0491: real time    0.0491
     EDDAV:  cpu time   17.9700: real time   18.0001
       DOS:  cpu time    0.0061: real time    0.0061
    CHARGE:  cpu time   20.2454: real time   20.2694
    MIXING:  cpu time    2.1758: real time    2.1788
    --------------------------------------------
      LOOP:  cpu time   80.0901: real time   80.1953

 eigenvalue-minimisations  :    32
 total energy-change (2. order) :-0.1396970E-06  (-0.1244221E-08)
 number of electron      31.9999999 magnetization 
 augmentation part        2.6775628 magnetization 

 Broyden mixing:
  rms(total) = 0.71651E-05    rms(broyden)= 0.71650E-05
  rms(prec ) = 0.73414E-05
  weight for this iteration     100.00

 eigenvalues of (default mixing * dielectric matrix)
  average eigenvalue GAMMA=   2.2206
  9.7781  7.2791  5.5763  4.0649  3.2884  2.4769  2.2359  2.2359  1.7918  1.6215
  1.3959  1.3959  1.1247  1.1247  0.9693  0.9693  1.0559  1.0559  0.9923  0.9923
  0.7197  0.8738  0.8738  0.8452  0.7780

 Free energy of the ion-electron system (eV)
  ---------------------------------------------------
  alpha Z        PSCENC =         0.09979497
  Ewald energy   TEWEN  =      1629.47387701
  -Hartree energ DENC   =     -3321.81028371
  -exchange      EXHF   =         0.00000000
  -V(xc)+E(xc)   XCENC  =       139.49002890
  PAW double counting   =      3107.58692093    -3116.49998740
  entropy T*S    EENTRO =        -0.00000000
  eigenvalues    EBANDS =      -508.15138363
  atomic energy  EATOM  =      2023.82482173
  Solvation  Ediel_sol  =         0.00000000
  ---------------------------------------------------
  free energy    TOTEN  =       -45.98621120 eV

  energy without entropy =      -45.98621120  energy(sigma->0) =      -45.98621120


--------------------------------------------------------------------------------------------------------




--------------------------------------- Iteration      1(  31)  ---------------------------------------


    POTLOK:  cpu time   39.7746: real time   39.8244
    SETDIJ:  cpu time    0.0575: real time    0.0576
     EDDAV:  cpu time   17.9498: real time   17.9783
       DOS:  cpu time    0.0044: real time    0.0044
    CHARGE:  cpu time   20.2420: real time   20.2663
    MIXING:  cpu time    2.2522: real time    2.2553
    --------------------------------------------
      LOOP:  cpu time   80.2805: real time   80.3862

 eigenvalue-minimisations  :    32
 total energy-change (2. order) :-0.1261133E-06  (-0.8771046E-09)
 number of electron      31.9999999 magnetization 
 augmentation part        2.6775636 magnetization 

 Broyden mixing:
  rms(total) = 0.46942E-05    rms(broyden)= 0.46942E-05
  rms(prec ) = 0.47738E-05
  weight for this iteration     100.00

 eigenvalues of (default mixing * dielectric matrix)
  average eigenvalue GAMMA=   2.2308
  9.7879  7.5292  5.7665  4.4345  3.0719  3.0719  2.3382  2.0675  1.8881  1.8881
  1.3352  1.3352  1.1375  1.1375  0.9691  0.9691  1.1206  1.1206  1.1049  1.0498
  0.7197  0.8835  0.8835  0.8527  0.8527  0.6854

 Free energy of the ion-electron system (eV)
  ---------------------------------------------------
  alpha Z        PSCENC =         0.09979497
  Ewald energy   TEWEN  =      1629.47387701
  -Hartree energ DENC   =     -3321.81010778
  -exchange      EXHF   =         0.00000000
  -V(xc)+E(xc)   XCENC  =       139.49001789
  PAW double counting   =      3107.58662547    -3116.49968610
  entropy T*S    EENTRO =        -0.00000000
  eigenvalues    EBANDS =      -508.15155453
  atomic energy  EATOM  =      2023.82482173
  Solvation  Ediel_sol  =         0.00000000
  ---------------------------------------------------
  free energy    TOTEN  =       -45.98621133 eV

  energy without entropy =      -45.98621133  energy(sigma->0) =      -45.98621133


--------------------------------------------------------------------------------------------------------




--------------------------------------- Iteration      1(  32)  ---------------------------------------


    POTLOK:  cpu time   40.0646: real time   40.1128
    SETDIJ:  cpu time    0.0619: real time    0.0620
     EDDAV:  cpu time   17.9757: real time   18.0042
       DOS:  cpu time    0.0088: real time    0.0088
    --------------------------------------------
      LOOP:  cpu time   58.1110: real time   58.1877

 eigenvalue-minimisations  :    32
 total energy-change (2. order) :-0.3888454E-07  (-0.7746372E-09)
 number of electron      31.9999999 magnetization 
 augmentation part        2.6775636 magnetization 

 Free energy of the ion-electron system (eV)
  ---------------------------------------------------
  alpha Z        PSCENC =         0.09979497
  Ewald energy   TEWEN  =      1629.47387701
  -Hartree energ DENC   =     -3321.80998100
  -exchange      EXHF   =         0.00000000
  -V(xc)+E(xc)   XCENC  =       139.49001059
  PAW double counting   =      3107.58615318    -3116.49921787
  entropy T*S    EENTRO =        -0.00000000
  eigenvalues    EBANDS =      -508.15166998
  atomic energy  EATOM  =      2023.82482173
  Solvation  Ediel_sol  =         0.00000000
  ---------------------------------------------------
  free energy    TOTEN  =       -45.98621137 eV

  energy without entropy =      -45.98621137  energy(sigma->0) =      -45.98621137


--------------------------------------------------------------------------------------------------------




 average (electrostatic) potential at core
  the test charge radii are     0.6991  0.7215
  (the norm of the test charge is              1.0000)
       1 -63.6371       2 -63.6371       3 -82.6487       4 -82.6592       5 -82.6487
       6 -82.6592
 
 
 
 E-fermi :  -8.9159     XC(G=0):  -0.0414     alpha+bet : -0.0117


 k-point     1 :       0.0000    0.0000    0.0000
  band No.  band energies     occupation 
      1     -29.1902      2.00000
      2     -29.1899      2.00000
      3     -28.1823      2.00000
      4     -28.1820      2.00000
      5     -13.7231      2.00000
      6     -13.7046      2.00000
      7     -12.6575      2.00000
      8     -12.6575      2.00000
      9     -12.6564      2.00000
     10     -12.6564      2.00000
     11     -12.5715      2.00000
     12     -12.5460      2.00000
     13      -9.0420      2.00000
     14      -9.0420      2.00000
     15      -9.0373      2.00000
     16      -9.0373      2.00000
     17      -1.0679      0.00000
     18      -0.8504      0.00000
     19      -0.4838      0.00000
     20      -0.4832      0.00000


--------------------------------------------------------------------------------------------------------


 soft charge-density along one line, spin component            1
         0         1         2         3         4         5         6         7         8         9
 total charge-density along one line
 
 pseudopotential strength for first ion, spin component:            1
 10.552  14.040  -0.000  -0.000  -0.000   0.000   0.000   0.000
 14.040  18.680  -0.000  -0.000  -0.000   0.000   0.000   0.000
 -0.000  -0.000  -4.687  -0.000  -0.000   9.150   0.000   0.000
 -0.000  -0.000  -0.000  -4.613   0.000   0.000   9.026  -0.000
 -0.000  -0.000  -0.000   0.000  -4.613   0.000  -0.000   9.026
  0.000   0.000   9.150   0.000   0.000 -20.019  -0.000  -0.000
  0.000   0.000   0.000   9.026  -0.000  -0.000 -19.813   0.000
  0.000   0.000   0.000  -0.000   9.026  -0.000   0.000 -19.813
 total augmentation occupancy for first ion, spin component:            1
 11.074  -5.579  -0.001   0.000   0.000  -0.000  -0.000  -0.000
 -5.579   3.019   0.001   0.000  -0.000   0.000   0.000   0.000
 -0.001   0.001   2.593   0.000   0.000   0.330  -0.000   0.000
  0.000   0.000   0.000   1.239   0.000   0.000   0.083   0.000
  0.000  -0.000   0.000   0.000   1.239  -0.000   0.000   0.083
 -0.000   0.000   0.330   0.000  -0.000   0.051   0.000   0.000
 -0.000   0.000  -0.000   0.083   0.000   0.000   0.006   0.000
 -0.000   0.000   0.000   0.000   0.083   0.000   0.000   0.006


------------------------ aborting loop because EDIFF is reached ----------------------------------------



 DIPCOR: dipole corrections for dipol
 direction  1 min pos   449, direction  2 min pos   547, direction  3 min pos   498,
 dipolmoment           0.000005      0.000002     -0.000003 electrons x Angstroem
 Tr[quadrupol]        15.816004

 energy correction for charged system         0.000000 eV
 dipol+quadrupol energy correction            0.000000 eV
 added-field ion interaction          0.000000 eV  (added to PSCEN)

 
  *************** adding dipol energy to TOTEN NOW **************** 
    CHARGE:  cpu time   20.1772: real time   20.2010
    FORLOC:  cpu time    2.1046: real time    2.1065
    FORNL :  cpu time    1.1398: real time    1.1416
    STRESS:  cpu time    7.1552: real time    7.1659
    FORCOR:  cpu time   39.8116: real time   39.8578
    FORHAR:  cpu time   11.5551: real time   11.5691
    MIXING:  cpu time    1.9582: real time    1.9613
    OFIELD:  cpu time    0.0000: real time    0.0000

  FORCE on cell =-STRESS in cart. coord.  units (eV):
  Direction    XX          YY          ZZ          XY          YZ          ZX
  --------------------------------------------------------------------------------------
  Alpha Z     0.09979     0.09979     0.09979
  Ewald    -203.00301  2035.48072  -203.00301     0.00000    -0.00000     0.00000
  Hartree   649.27496  2023.25996   649.27496    -0.00000     0.00000    -0.00000
  E(xc)    -150.33944  -146.12457  -150.33944     0.00000     0.00000    -0.00000
  Local    -913.52960 -4379.70777  -913.52960    -0.00000    -0.00000    -0.00000
  n-local   -97.06781  -109.30127   -97.06778    -0.00000    -0.00000     0.00000
  augment    26.55127    21.02968    26.55127     0.00000     0.00000    -0.00000
  Kinetic   688.00956   558.21509   688.00954     0.00000     0.00000    -0.00000
  Fock        0.00000     0.00000     0.00000     0.00000     0.00000     0.00000
  -------------------------------------------------------------------------------------
  Total      -0.00427     2.95165    -0.00427     0.00000     0.00000     0.00000
  in kB      -0.00016     0.11030    -0.00016     0.00000     0.00000     0.00000
  external pressure =        0.04 kB  Pullay stress =        0.00 kB


 VOLUME and BASIS-vectors are now :
 -----------------------------------------------------------------------------
  energy-cutoff  :     1600.00
  volume of cell :    42875.00
      direct lattice vectors                 reciprocal lattice vectors
    35.000000000  0.000000000  0.000000000     0.028571429  0.000000000  0.000000000
     0.000000000 35.000000000  0.000000000     0.000000000  0.028571429  0.000000000
     0.000000000  0.000000000 35.000000000     0.000000000  0.000000000  0.028571429

  length of vectors
    35.000000000 35.000000000 35.000000000     0.028571429  0.028571429  0.028571429


 FORCES acting on ions
    electron-ion (+dipol)            ewald-force                    non-local-force                 convergence-correction
 -----------------------------------------------------------------------------------------------
   0.606E-15 0.226E+02 -.433E-08   -.386E-17 -.225E+02 0.215E-17   -.497E-26 -.160E-01 0.000E+00   0.310E-14 0.578E-05 0.538E-13
   0.165E-15 -.226E+02 0.583E-09   0.345E-17 0.225E+02 0.172E-17   0.164E-25 0.160E-01 -.808E-27   -.228E-14 -.578E-05 0.462E-14
   -.402E-15 -.229E+03 -.384E-08   -.164E-17 0.294E+03 -.380E-17   0.656E-26 -.645E+02 0.000E+00   0.980E-14 -.805E-05 0.480E-13
   0.358E-14 0.305E+03 -.437E-08   -.393E-17 -.370E+03 -.437E-17   0.230E-25 0.643E+02 0.000E+00   0.166E-13 0.161E-04 0.142E-12
   -.363E-14 0.229E+03 0.187E-08   0.515E-17 -.294E+03 -.668E-17   -.525E-26 0.645E+02 0.162E-26   0.517E-14 0.805E-05 0.256E-13
   0.876E-15 -.305E+03 -.748E-09   0.472E-17 0.370E+03 0.668E-18   -.275E-25 -.643E+02 0.000E+00   0.434E-14 -.161E-04 -.623E-14
 -----------------------------------------------------------------------------------------------
   0.119E-14 -.135E-05 -.108E-07   0.390E-17 -.568E-13 -.103E-16   0.825E-26 0.284E-13 0.808E-27   0.367E-13 0.446E-11 0.267E-12
 
 
 POSITION                                       TOTAL-FORCE (eV/Angst)
 -----------------------------------------------------------------------------------
      0.00000      0.05699      0.00000        -0.000000      0.037667     -0.000000
      0.00000      6.59743      0.00000         0.000000     -0.037667      0.000000
      0.00000      1.22721      0.00000         0.000000      0.611486      0.000000
      0.00000     33.88677      0.00000        -0.000000     -0.649882     -0.000000
      0.00000      5.42721      0.00000        -0.000000     -0.611486      0.000000
      0.00000      7.76765      0.00000         0.000000      0.649882     -0.000000
 -----------------------------------------------------------------------------------
    total drift:                                0.000000     -0.000001     -0.000000


--------------------------------------------------------------------------------------------------------



  FREE ENERGIE OF THE ION-ELECTRON SYSTEM (eV)
  ---------------------------------------------------
  free  energy   TOTEN  =       -45.98621137 eV

  energy  without entropy=      -45.98621137  energy(sigma->0) =      -45.98621137
 


--------------------------------------------------------------------------------------------------------


    POTLOK:  cpu time   39.5483: real time   39.5960


--------------------------------------------------------------------------------------------------------


 writing wavefunctions
     LOOP+:  cpu time 3356.5656: real time 3365.3206
    4ORBIT:  cpu time    0.0000: real time    0.0000

 total amount of memory used by VASP MPI-rank0  5977588. kBytes
=======================================================================

   base      :      30000. kBytes
   nonl-proj :      87230. kBytes
   fftplans  :    2143445. kBytes
   grid      :    3654604. kBytes
   one-center:          1. kBytes
   wavefun   :      62308. kBytes
 
  
  
 General timing and accounting informations for this job:
 ========================================================
  
                  Total CPU time used (sec):     4311.047
                            User time (sec):     4117.112
                          System time (sec):      193.935
                         Elapsed time (sec):     4329.411
  
                   Maximum memory used (kb):     8116900.
                   Average memory used (kb):           0.
  
                          Minor page faults:    172864666
                          Major page faults:          197
                 Voluntary context switches:         2857
