
     Program PWSCF v.7.2 starts on 12Oct2023 at 16:53:59 

     This program is part of the open-source Quantum ESPRESSO suite
     for quantum simulation of materials; please cite
         "P. Giannozzi et al., J. Phys.:Condens. Matter 21 395502 (2009);
         "P. Giannozzi et al., J. Phys.:Condens. Matter 29 465901 (2017);
         "P. Giannozzi et al., J. Chem. Phys. 152 154105 (2020);
          URL http://www.quantum-espresso.org", 
     in publications or presentations arising from this work. More details at
     http://www.quantum-espresso.org/quote

     Parallel version (MPI), running on    32 processors

     MPI processes distributed on     1 nodes
     248130 MiB available memory on the printing compute node when the environment starts

     Reading input from 09MeNH2MeOH100_efficiency_dimer.in
Warning: card &CELL ignored
Warning: card / ignored

     Current dimensions of program PWSCF are:
     Max number of different atomic species (ntypx) = 10
     Max number of k-points (npk) =  40000
     Max angular momentum in pseudopotentials (lmaxx) =  4
     file N.pbe-n-kjpaw_psl.1.0.0.UPF: wavefunction(s)  2S renormalized
     file H.pbe-kjpaw_psl.1.0.0.UPF: wavefunction(s)  1S renormalized
     file C.pbe-n-kjpaw_psl.1.0.0.UPF: wavefunction(s)  2S 2P renormalized
     file O.pbe-nl-kjpaw_psl.1.0.0.UPF: wavefunction(s)  2S 2P renormalized

     IMPORTANT: XC functional enforced from input :
     Exchange-correlation= PBE
                           (   1   4   3   4   0   0   0)
     Any further DFT definition will be discarded
     Please, verify this is what you really want


     gamma-point specific algorithms are used

     R & G space division:  proc/nbgrp/npool/nimage =      32
     Subspace diagonalization in iterative solution of the eigenvalue problem:
     a serial algorithm will be used


     Parallelization info
     --------------------
     sticks:   dense  smooth     PW     G-vecs:    dense   smooth      PW
     Min        6395    6395   1598              2177048  2177048  272114
     Max        6398    6398   1600              2177062  2177062  272124
     Sum      204693  204693  51189             69665707 69665707 8707803

     Using Slab Decomposition



     bravais-lattice index     =            0
     lattice parameter (alat)  =      66.1404  a.u.
     unit-cell volume          =  289334.8415 (a.u.)^3
     number of atoms/cell      =           13
     number of atomic types    =            4
     number of electrons       =        28.00
     number of Kohn-Sham states=           14
     kinetic-energy cutoff     =     147.0000  Ry
     charge density cutoff     =     588.0000  Ry
     scf convergence threshold =      1.0E-08
     mixing beta               =       0.7000
     number of iterations used =            8  plain     mixing
     Exchange-correlation= PBE
                           (   1   4   3   4   0   0   0)

     celldm(1)=  66.140414  celldm(2)=   0.000000  celldm(3)=   0.000000
     celldm(4)=   0.000000  celldm(5)=   0.000000  celldm(6)=   0.000000

     crystal axes: (cart. coord. in units of alat)
               a(1) = (   1.000000   0.000000   0.000000 )  
               a(2) = (   0.000000   1.000000   0.000000 )  
               a(3) = (   0.000000   0.000000   1.000000 )  

     reciprocal axes: (cart. coord. in units 2 pi/alat)
               b(1) = (  1.000000  0.000000  0.000000 )  
               b(2) = (  0.000000  1.000000  0.000000 )  
               b(3) = (  0.000000  0.000000  1.000000 )  


     PseudoPot. # 1 for N  read from file:
     /home/users/klimj2am/src/pslibrary.1.0.0/pbe/PSEUDOPOTENTIALS/N.pbe-n-kjpaw_psl.1.0.0.UPF
     MD5 check sum: ed3381810ced4c04e88f7c2008d4036c
     Pseudo is Projector augmented-wave + core cor, Zval =  5.0
     Generated using 'atomic' code by A. Dal Corso  v.7.2
     Shape of augmentation charge: PSQ
     Using radial grid of 1085 points,  4 beta functions with: 
                l(1) =   0
                l(2) =   0
                l(3) =   1
                l(4) =   1
     Q(r) pseudized with 0 coefficients 


     PseudoPot. # 2 for H  read from file:
     /home/users/klimj2am/src/pslibrary.1.0.0/pbe/PSEUDOPOTENTIALS/H.pbe-kjpaw_psl.1.0.0.UPF
     MD5 check sum: 220281c0717fd894cece6904c624ceaa
     Pseudo is Projector augmented-wave, Zval =  1.0
     Generated using 'atomic' code by A. Dal Corso  v.7.2
     Shape of augmentation charge: PSQ
     Using radial grid of  929 points,  2 beta functions with: 
                l(1) =   0
                l(2) =   0
     Q(r) pseudized with 0 coefficients 


     PseudoPot. # 3 for C  read from file:
     /home/users/klimj2am/src/pslibrary.1.0.0/pbe/PSEUDOPOTENTIALS/C.pbe-n-kjpaw_psl.1.0.0.UPF
     MD5 check sum: 9d4797b4e2669f30c50dcc814f8da1dd
     Pseudo is Projector augmented-wave + core cor, Zval =  4.0
     Generated using 'atomic' code by A. Dal Corso  v.7.2
     Shape of augmentation charge: PSQ
     Using radial grid of 1073 points,  4 beta functions with: 
                l(1) =   0
                l(2) =   0
                l(3) =   1
                l(4) =   1
     Q(r) pseudized with 0 coefficients 


     PseudoPot. # 4 for O  read from file:
     /home/users/klimj2am/src/pslibrary.1.0.0/pbe/PSEUDOPOTENTIALS/O.pbe-nl-kjpaw_psl.1.0.0.UPF
     MD5 check sum: 3be12c084656f77eefcab7bec6207024
     Pseudo is Projector augmented-wave + core cor, Zval =  6.0
     Generated using 'atomic' code by A. Dal Corso  v.7.2
     Shape of augmentation charge: PSQ
     Using radial grid of 1095 points,  4 beta functions with: 
                l(1) =   0
                l(2) =   0
                l(3) =   1
                l(4) =   1
     Q(r) pseudized with 0 coefficients 


     atomic species   valence    mass     pseudopotential
        N              5.00    14.00700     N ( 1.00)
        H              1.00     1.00800     H ( 1.00)
        C              4.00    12.01100     C ( 1.00)
        O              6.00    15.99900     O ( 1.00)

     No symmetry found



   Cartesian axes

     site n.     atom                  positions (alat units)
         1           N   tau(   1) = (  -0.0255272  -0.0012527  -0.0012285  )
         2           H   tau(   2) = (   0.0027700  -0.0073160  -0.0020306  )
         3           H   tau(   3) = (  -0.0390983  -0.0266683   0.0009668  )
         4           C   tau(   4) = (  -0.0335938   0.0216545   0.0327211  )
         5           H   tau(   5) = (  -0.0640465   0.0277776   0.0341436  )
         6           H   tau(   6) = (  -0.0251654   0.0086928   0.0599203  )
         7           H   tau(   7) = (  -0.0189430   0.0489808   0.0303088  )
         8           O   tau(   8) = (   0.0670580  -0.0011860   0.0008758  )
         9           H   tau(   9) = (   0.0751159   0.0093840  -0.0231203  )
        10           C   tau(  10) = (   0.0780841   0.0248593   0.0300026  )
        11           H   tau(  11) = (   0.0688503   0.0125840   0.0569473  )
        12           H   tau(  12) = (   0.1089714   0.0288331   0.0311180  )
        13           H   tau(  13) = (   0.0644134   0.0526763   0.0267118  )

     number of k points=     1
                       cart. coord. in units 2pi/alat
        k(    1) = (   0.0000000   0.0000000   0.0000000), wk =   2.0000000

     Dense  grid: 34832854 G-vectors     FFT dimensions: ( 512, 512, 512)

     Estimated max dynamical RAM per process >       1.80 GB

     Estimated total dynamical RAM >      57.47 GB

     Initial potential from superposition of free atoms

     starting charge      27.9998, renormalised to      28.0000

     negative rho (up, down):  8.083E-04 0.000E+00
     Starting wfcs are   25 randomized atomic wfcs
     Checking if some PAW data can be deallocated... 

     total cpu time spent up to now is       47.6 secs

     Self-consistent Calculation

     iteration #  1     ecut=   147.00 Ry     beta= 0.70
     Davidson diagonalization with overlap
     ethr =  1.00E-02,  avg # of iterations =  2.0

     negative rho (up, down):  1.138E-03 0.000E+00

     total cpu time spent up to now is       66.3 secs

     total energy              =    -116.90418307 Ry
     estimated scf accuracy    <       1.59234128 Ry

     iteration #  2     ecut=   147.00 Ry     beta= 0.70
     Davidson diagonalization with overlap
     ethr =  5.69E-03,  avg # of iterations =  2.0

     negative rho (up, down):  1.085E-03 0.000E+00

     total cpu time spent up to now is       84.4 secs

     total energy              =    -117.29491486 Ry
     estimated scf accuracy    <       0.62384033 Ry

     iteration #  3     ecut=   147.00 Ry     beta= 0.70
     Davidson diagonalization with overlap
     ethr =  2.23E-03,  avg # of iterations =  2.0

     negative rho (up, down):  1.152E-03 0.000E+00

     total cpu time spent up to now is      101.8 secs

     total energy              =    -117.39568352 Ry
     estimated scf accuracy    <       0.02217426 Ry

     iteration #  4     ecut=   147.00 Ry     beta= 0.70
     Davidson diagonalization with overlap
     ethr =  7.92E-05,  avg # of iterations =  3.0

     negative rho (up, down):  1.172E-03 0.000E+00

     total cpu time spent up to now is      120.7 secs

     total energy              =    -117.40283733 Ry
     estimated scf accuracy    <       0.01263881 Ry

     iteration #  5     ecut=   147.00 Ry     beta= 0.70
     Davidson diagonalization with overlap
     ethr =  4.51E-05,  avg # of iterations =  2.0

     negative rho (up, down):  1.177E-03 0.000E+00

     total cpu time spent up to now is      137.7 secs

     total energy              =    -117.40433351 Ry
     estimated scf accuracy    <       0.00106761 Ry

     iteration #  6     ecut=   147.00 Ry     beta= 0.70
     Davidson diagonalization with overlap
     ethr =  3.81E-06,  avg # of iterations =  3.0

     negative rho (up, down):  1.178E-03 0.000E+00

     total cpu time spent up to now is      156.5 secs

     total energy              =    -117.40464050 Ry
     estimated scf accuracy    <       0.00006319 Ry

     iteration #  7     ecut=   147.00 Ry     beta= 0.70
     Davidson diagonalization with overlap
     ethr =  2.26E-07,  avg # of iterations =  4.0

     negative rho (up, down):  1.179E-03 0.000E+00

     total cpu time spent up to now is      175.2 secs

     total energy              =    -117.40465773 Ry
     estimated scf accuracy    <       0.00001059 Ry

     iteration #  8     ecut=   147.00 Ry     beta= 0.70
     Davidson diagonalization with overlap
     ethr =  3.78E-08,  avg # of iterations =  3.0

     negative rho (up, down):  1.179E-03 0.000E+00

     total cpu time spent up to now is      193.4 secs

     total energy              =    -117.40465980 Ry
     estimated scf accuracy    <       0.00000085 Ry

     iteration #  9     ecut=   147.00 Ry     beta= 0.70
     Davidson diagonalization with overlap
     ethr =  3.04E-09,  avg # of iterations =  2.0

     negative rho (up, down):  1.179E-03 0.000E+00

     total cpu time spent up to now is      211.7 secs

     total energy              =    -117.40466003 Ry
     estimated scf accuracy    <       0.00000001 Ry

     iteration # 10     ecut=   147.00 Ry     beta= 0.70
     Davidson diagonalization with overlap
     ethr =  4.17E-11,  avg # of iterations =  5.0

     negative rho (up, down):  1.179E-03 0.000E+00

     total cpu time spent up to now is      232.8 secs

     total energy              =    -117.40466003 Ry
     estimated scf accuracy    <       0.00000001 Ry

     iteration # 11     ecut=   147.00 Ry     beta= 0.70
     Davidson diagonalization with overlap
     ethr =  3.78E-11,  avg # of iterations =  3.0

     negative rho (up, down):  1.179E-03 0.000E+00

     total cpu time spent up to now is      250.8 secs

     End of self-consistent calculation

          k = 0.0000 0.0000 0.0000 (****** PWs)   bands (ev):

   -25.8603 -21.4378 -17.1258 -15.9465 -12.8006 -11.6985 -10.8743 -10.6536
   -10.3949  -9.4624  -8.5814  -8.2592  -6.5989  -5.0977

     highest occupied level (ev):    -5.0977

!    total energy              =    -117.40466004 Ry
     total all-electron energy =      -423.078509 Ry
     estimated scf accuracy    <          3.0E-09 Ry

     The total energy is the sum of the following terms:
     one-electron contribution =    -377.81983951 Ry
     hartree contribution      =     193.31368564 Ry
     xc contribution           =     -28.97721891 Ry
     ewald contribution        =     125.96840942 Ry
     one-center paw contrib.   =     -29.88969667 Ry

     charge density inside the Wigner-Seitz cell:   28.00000000

     reference position (x0):         1.47762633    0.77388965    1.09833894 bohr

     Dipole moments (with respect to x0):
     Elect   0.6370   0.2542   0.2919 au (Ha),   1.6191   0.6460   0.7420 Debye
     Ionic   0.0000  -0.0000   0.0000 au (Ha),   0.0000  -0.0000   0.0000 Debye
     Total   0.6370   0.2542   0.2919 au (Ha),   1.6191   0.6460   0.7420 Debye

     Electrons quadrupole moment       -488.10674208 a.u. (Ha)
          Ions quadrupole moment        428.31640202 a.u. (Ha)
         Total quadrupole moment        -59.79034006 a.u. (Ha)

     *********    MAKOV-PAYNE CORRECTION    *********

     Makov-Payne correction with Madelung constant =   2.8373

     Makov-Payne correction     0.00000000 Ry =  0.000 eV (1st order, 1/a0)
                                0.00000804 Ry =  0.000 eV (2nd order, 1/a0^3)
                                0.00000804 Ry =  0.000 eV (total)

!    Total+Makov-Payne energy  =    -117.40465199 Ry
     Corrected vacuum level    =       0.01177127 eV

     convergence has been achieved in  11 iterations

     Writing all to output data dir ./pwscf.save/

     init_run     :     42.89s CPU     46.56s WALL (       1 calls)
     electrons    :    176.24s CPU    206.03s WALL (       1 calls)

     Called by init_run:
     wfcinit      :      3.51s CPU      4.09s WALL (       1 calls)
     potinit      :      5.21s CPU      6.20s WALL (       1 calls)
     hinit0       :      5.86s CPU      6.25s WALL (       1 calls)

     Called by electrons:
     c_bands      :     71.99s CPU     75.71s WALL (      11 calls)
     sum_band     :     50.05s CPU     60.28s WALL (      11 calls)
     v_of_rho     :     25.94s CPU     31.79s WALL (      12 calls)
     newd         :     22.53s CPU     32.56s WALL (      12 calls)
     PAW_pot      :      0.21s CPU      0.24s WALL (      12 calls)
     mix_rho      :      6.80s CPU      7.40s WALL (      11 calls)

     Called by c_bands:
     init_us_2    :      1.05s CPU      1.16s WALL (      23 calls)
     init_us_2:cp :      1.05s CPU      1.16s WALL (      23 calls)
     regterg      :     70.52s CPU     74.18s WALL (      11 calls)

     Called by *egterg:
     rdiaghg      :      0.01s CPU      0.02s WALL (      42 calls)
     h_psi        :     61.99s CPU     66.00s WALL (      43 calls)
     s_psi        :      2.75s CPU      2.76s WALL (      43 calls)
     g_psi        :      0.20s CPU      0.21s WALL (      31 calls)

     Called by h_psi:
     h_psi:calbec :      2.12s CPU      2.15s WALL (      43 calls)
     vloc_psi     :     56.71s CPU     60.63s WALL (      43 calls)
     add_vuspsi   :      2.76s CPU      2.78s WALL (      43 calls)

     General routines
     calbec       :      2.74s CPU      2.79s WALL (      54 calls)
     fft          :     22.07s CPU     26.54s WALL (     108 calls)
     ffts         :      1.81s CPU      2.17s WALL (      11 calls)
     fftw         :     51.65s CPU     55.96s WALL (     575 calls)

     Parallel routines

     PWSCF        :   3m41.57s CPU   4m18.42s WALL


   This run was terminated on:  16:58:18  12Oct2023            

=------------------------------------------------------------------------------=
   JOB DONE.
=------------------------------------------------------------------------------=
