
     Program PWSCF v.7.2 starts on 12Oct2023 at 16:55:10 

     This program is part of the open-source Quantum ESPRESSO suite
     for quantum simulation of materials; please cite
         "P. Giannozzi et al., J. Phys.:Condens. Matter 21 395502 (2009);
         "P. Giannozzi et al., J. Phys.:Condens. Matter 29 465901 (2017);
         "P. Giannozzi et al., J. Chem. Phys. 152 154105 (2020);
          URL http://www.quantum-espresso.org", 
     in publications or presentations arising from this work. More details at
     http://www.quantum-espresso.org/quote

     Parallel version (MPI), running on    32 processors

     MPI processes distributed on     1 nodes
     246852 MiB available memory on the printing compute node when the environment starts

     Reading input from 10MeNH2MeNH2100_efficiency_dimer.in
Warning: card &CELL ignored
Warning: card / ignored

     Current dimensions of program PWSCF are:
     Max number of different atomic species (ntypx) = 10
     Max number of k-points (npk) =  40000
     Max angular momentum in pseudopotentials (lmaxx) =  4
     file N.pbe-n-kjpaw_psl.1.0.0.UPF: wavefunction(s)  2S renormalized
     file H.pbe-kjpaw_psl.1.0.0.UPF: wavefunction(s)  1S renormalized
     file C.pbe-n-kjpaw_psl.1.0.0.UPF: wavefunction(s)  2S 2P renormalized

     IMPORTANT: XC functional enforced from input :
     Exchange-correlation= PBE
                           (   1   4   3   4   0   0   0)
     Any further DFT definition will be discarded
     Please, verify this is what you really want


     gamma-point specific algorithms are used

     R & G space division:  proc/nbgrp/npool/nimage =      32
     Subspace diagonalization in iterative solution of the eigenvalue problem:
     a serial algorithm will be used


     Parallelization info
     --------------------
     sticks:   dense  smooth     PW     G-vecs:    dense   smooth      PW
     Min        6395    6395   1598              2177048  2177048  272114
     Max        6398    6398   1600              2177062  2177062  272124
     Sum      204693  204693  51189             69665707 69665707 8707803

     Using Slab Decomposition



     bravais-lattice index     =            0
     lattice parameter (alat)  =      66.1404  a.u.
     unit-cell volume          =  289334.8415 (a.u.)^3
     number of atoms/cell      =           14
     number of atomic types    =            3
     number of electrons       =        28.00
     number of Kohn-Sham states=           14
     kinetic-energy cutoff     =     147.0000  Ry
     charge density cutoff     =     588.0000  Ry
     scf convergence threshold =      1.0E-08
     mixing beta               =       0.7000
     number of iterations used =            8  plain     mixing
     Exchange-correlation= PBE
                           (   1   4   3   4   0   0   0)

     celldm(1)=  66.140414  celldm(2)=   0.000000  celldm(3)=   0.000000
     celldm(4)=   0.000000  celldm(5)=   0.000000  celldm(6)=   0.000000

     crystal axes: (cart. coord. in units of alat)
               a(1) = (   1.000000   0.000000   0.000000 )  
               a(2) = (   0.000000   1.000000   0.000000 )  
               a(3) = (   0.000000   0.000000   1.000000 )  

     reciprocal axes: (cart. coord. in units 2 pi/alat)
               b(1) = (  1.000000  0.000000  0.000000 )  
               b(2) = (  0.000000  1.000000  0.000000 )  
               b(3) = (  0.000000  0.000000  1.000000 )  


     PseudoPot. # 1 for N  read from file:
     /home/users/klimj2am/src/pslibrary.1.0.0/pbe/PSEUDOPOTENTIALS/N.pbe-n-kjpaw_psl.1.0.0.UPF
     MD5 check sum: ed3381810ced4c04e88f7c2008d4036c
     Pseudo is Projector augmented-wave + core cor, Zval =  5.0
     Generated using 'atomic' code by A. Dal Corso  v.7.2
     Shape of augmentation charge: PSQ
     Using radial grid of 1085 points,  4 beta functions with: 
                l(1) =   0
                l(2) =   0
                l(3) =   1
                l(4) =   1
     Q(r) pseudized with 0 coefficients 


     PseudoPot. # 2 for H  read from file:
     /home/users/klimj2am/src/pslibrary.1.0.0/pbe/PSEUDOPOTENTIALS/H.pbe-kjpaw_psl.1.0.0.UPF
     MD5 check sum: 220281c0717fd894cece6904c624ceaa
     Pseudo is Projector augmented-wave, Zval =  1.0
     Generated using 'atomic' code by A. Dal Corso  v.7.2
     Shape of augmentation charge: PSQ
     Using radial grid of  929 points,  2 beta functions with: 
                l(1) =   0
                l(2) =   0
     Q(r) pseudized with 0 coefficients 


     PseudoPot. # 3 for C  read from file:
     /home/users/klimj2am/src/pslibrary.1.0.0/pbe/PSEUDOPOTENTIALS/C.pbe-n-kjpaw_psl.1.0.0.UPF
     MD5 check sum: 9d4797b4e2669f30c50dcc814f8da1dd
     Pseudo is Projector augmented-wave + core cor, Zval =  4.0
     Generated using 'atomic' code by A. Dal Corso  v.7.2
     Shape of augmentation charge: PSQ
     Using radial grid of 1073 points,  4 beta functions with: 
                l(1) =   0
                l(2) =   0
                l(3) =   1
                l(4) =   1
     Q(r) pseudized with 0 coefficients 


     atomic species   valence    mass     pseudopotential
        N              5.00    14.00700     N ( 1.00)
        H              1.00     1.00800     H ( 1.00)
        C              4.00    12.01100     C ( 1.00)

     No symmetry found



   Cartesian axes

     site n.     atom                  positions (alat units)
         1           N   tau(   1) = (  -0.0182469   0.0134548   0.0012734  )
         2           H   tau(   2) = (   0.0054273  -0.0032553  -0.0001650  )
         3           H   tau(   3) = (  -0.0371563   0.0023216  -0.0175334  )
         4           C   tau(   4) = (  -0.0342474   0.0111828   0.0397699  )
         5           H   tau(   5) = (  -0.0597925   0.0288356   0.0415191  )
         6           H   tau(   6) = (  -0.0417927  -0.0175955   0.0494129  )
         7           H   tau(   7) = (  -0.0137222   0.0228193   0.0600311  )
         8           N   tau(   8) = (   0.0694460  -0.0131550   0.0057130  )
         9           H   tau(   9) = (   0.0779108  -0.0053111  -0.0208008  )
        10           H   tau(  10) = (   0.0872617  -0.0345176   0.0135758  )
        11           C   tau(  11) = (   0.0740240   0.0192796   0.0318181  )
        12           H   tau(  12) = (   0.0663043   0.0102883   0.0605510  )
        13           H   tau(  13) = (   0.1028072   0.0313303   0.0328744  )
        14           H   tau(  14) = (   0.0542371   0.0417303   0.0234564  )

     number of k points=     1
                       cart. coord. in units 2pi/alat
        k(    1) = (   0.0000000   0.0000000   0.0000000), wk =   2.0000000

     Dense  grid: 34832854 G-vectors     FFT dimensions: ( 512, 512, 512)

     Estimated max dynamical RAM per process >       1.78 GB

     Estimated total dynamical RAM >      57.06 GB

     Initial potential from superposition of free atoms

     starting charge      27.9998, renormalised to      28.0000

     negative rho (up, down):  6.387E-04 0.000E+00
     Starting wfcs are   26 randomized atomic wfcs
     Checking if some PAW data can be deallocated... 

     total cpu time spent up to now is       45.6 secs

     Self-consistent Calculation

     iteration #  1     ecut=   147.00 Ry     beta= 0.70
     Davidson diagonalization with overlap
     ethr =  1.00E-02,  avg # of iterations =  2.0

     negative rho (up, down):  1.257E-03 0.000E+00

     total cpu time spent up to now is       63.6 secs

     total energy              =    -104.58688044 Ry
     estimated scf accuracy    <       1.82092286 Ry

     iteration #  2     ecut=   147.00 Ry     beta= 0.70
     Davidson diagonalization with overlap
     ethr =  6.50E-03,  avg # of iterations =  2.0

     negative rho (up, down):  1.224E-03 0.000E+00

     total cpu time spent up to now is       81.5 secs

     total energy              =    -105.01724476 Ry
     estimated scf accuracy    <       0.82869494 Ry

     iteration #  3     ecut=   147.00 Ry     beta= 0.70
     Davidson diagonalization with overlap
     ethr =  2.96E-03,  avg # of iterations =  2.0

     negative rho (up, down):  1.340E-03 0.000E+00

     total cpu time spent up to now is       99.3 secs

     total energy              =    -105.17027856 Ry
     estimated scf accuracy    <       0.02072985 Ry

     iteration #  4     ecut=   147.00 Ry     beta= 0.70
     Davidson diagonalization with overlap
     ethr =  7.40E-05,  avg # of iterations =  2.0

     negative rho (up, down):  1.369E-03 0.000E+00

     total cpu time spent up to now is      117.2 secs

     total energy              =    -105.17439128 Ry
     estimated scf accuracy    <       0.00537778 Ry

     iteration #  5     ecut=   147.00 Ry     beta= 0.70
     Davidson diagonalization with overlap
     ethr =  1.92E-05,  avg # of iterations =  2.0

     negative rho (up, down):  1.376E-03 0.000E+00

     total cpu time spent up to now is      134.3 secs

     total energy              =    -105.17507507 Ry
     estimated scf accuracy    <       0.00032465 Ry

     iteration #  6     ecut=   147.00 Ry     beta= 0.70
     Davidson diagonalization with overlap
     ethr =  1.16E-06,  avg # of iterations =  3.0

     negative rho (up, down):  1.383E-03 0.000E+00

     total cpu time spent up to now is      152.3 secs

     total energy              =    -105.17517033 Ry
     estimated scf accuracy    <       0.00002056 Ry

     iteration #  7     ecut=   147.00 Ry     beta= 0.70
     Davidson diagonalization with overlap
     ethr =  7.34E-08,  avg # of iterations =  2.0

     negative rho (up, down):  1.383E-03 0.000E+00

     total cpu time spent up to now is      170.3 secs

     total energy              =    -105.17517633 Ry
     estimated scf accuracy    <       0.00000528 Ry

     iteration #  8     ecut=   147.00 Ry     beta= 0.70
     Davidson diagonalization with overlap
     ethr =  1.89E-08,  avg # of iterations =  2.0

     negative rho (up, down):  1.383E-03 0.000E+00

     total cpu time spent up to now is      187.2 secs

     total energy              =    -105.17517676 Ry
     estimated scf accuracy    <       0.00000047 Ry

     iteration #  9     ecut=   147.00 Ry     beta= 0.70
     Davidson diagonalization with overlap
     ethr =  1.67E-09,  avg # of iterations =  2.0

     negative rho (up, down):  1.383E-03 0.000E+00

     total cpu time spent up to now is      205.3 secs

     total energy              =    -105.17517694 Ry
     estimated scf accuracy    <       0.00000005 Ry

     iteration # 10     ecut=   147.00 Ry     beta= 0.70
     Davidson diagonalization with overlap
     ethr =  1.89E-10,  avg # of iterations =  2.0

     negative rho (up, down):  1.383E-03 0.000E+00

     total cpu time spent up to now is      223.1 secs

     total energy              =    -105.17517694 Ry
     estimated scf accuracy    <       0.00000002 Ry

     iteration # 11     ecut=   147.00 Ry     beta= 0.70
     Davidson diagonalization with overlap
     ethr =  7.67E-11,  avg # of iterations =  2.0

     negative rho (up, down):  1.383E-03 0.000E+00

     total cpu time spent up to now is      240.1 secs

     End of self-consistent calculation

          k = 0.0000 0.0000 0.0000 (****** PWs)   bands (ev):

   -22.0294 -21.3432 -16.3514 -15.8591 -12.2134 -11.6148 -10.8609 -10.3577
    -9.8356  -9.3473  -8.8986  -8.4469  -5.7745  -5.0254

     highest occupied level (ev):    -5.0254

!    total energy              =    -105.17517694 Ry
     total all-electron energy =      -383.300924 Ry
     estimated scf accuracy    <          6.0E-10 Ry

     The total energy is the sum of the following terms:
     one-electron contribution =    -365.02342250 Ry
     hartree contribution      =     186.58882859 Ry
     xc contribution           =     -28.03033650 Ry
     ewald contribution        =     129.56358126 Ry
     one-center paw contrib.   =     -28.27382780 Ry

     charge density inside the Wigner-Seitz cell:   28.00000000

     reference position (x0):         1.55096126    0.47241732    1.33274224 bohr

     Dipole moments (with respect to x0):
     Elect   0.5861  -0.3913   0.0448 au (Ha),   1.4896  -0.9946   0.1140 Debye
     Ionic   0.0000  -0.0000  -0.0000 au (Ha),   0.0000  -0.0000  -0.0000 Debye
     Total   0.5861  -0.3913   0.0448 au (Ha),   1.4896  -0.9946   0.1140 Debye

     Electrons quadrupole moment       -482.84925134 a.u. (Ha)
          Ions quadrupole moment        423.14406796 a.u. (Ha)
         Total quadrupole moment        -59.70518338 a.u. (Ha)

     *********    MAKOV-PAYNE CORRECTION    *********

     Makov-Payne correction with Madelung constant =   2.8373

     Makov-Payne correction     0.00000000 Ry =  0.000 eV (1st order, 1/a0)
                                0.00000722 Ry =  0.000 eV (2nd order, 1/a0^3)
                                0.00000722 Ry =  0.000 eV (total)

!    Total+Makov-Payne energy  =    -105.17516973 Ry
     Corrected vacuum level    =       0.01175965 eV

     convergence has been achieved in  11 iterations

     Writing all to output data dir ./pwscf.save/

     init_run     :     41.93s CPU     44.93s WALL (       1 calls)
     electrons    :    162.99s CPU    197.34s WALL (       1 calls)

     Called by init_run:
     wfcinit      :      4.03s CPU      4.43s WALL (       1 calls)
     potinit      :      4.51s CPU      5.44s WALL (       1 calls)
     hinit0       :      3.32s CPU      3.68s WALL (       1 calls)

     Called by electrons:
     c_bands      :     70.98s CPU     76.54s WALL (      11 calls)
     sum_band     :     42.39s CPU     52.10s WALL (      11 calls)
     v_of_rho     :     25.70s CPU     34.31s WALL (      12 calls)
     newd         :     18.71s CPU     27.14s WALL (      12 calls)
     PAW_pot      :      0.19s CPU      0.20s WALL (      12 calls)
     mix_rho      :      6.06s CPU      8.39s WALL (      11 calls)

     Called by c_bands:
     init_us_2    :      1.02s CPU      1.14s WALL (      23 calls)
     init_us_2:cp :      1.02s CPU      1.14s WALL (      23 calls)
     regterg      :     69.51s CPU     74.96s WALL (      11 calls)

     Called by *egterg:
     rdiaghg      :      0.01s CPU      0.02s WALL (      34 calls)
     h_psi        :     62.93s CPU     67.82s WALL (      35 calls)
     s_psi        :      2.36s CPU      2.36s WALL (      35 calls)
     g_psi        :      0.20s CPU      0.20s WALL (      23 calls)

     Called by h_psi:
     h_psi:calbec :      2.00s CPU      2.06s WALL (      35 calls)
     vloc_psi     :     58.17s CPU     62.95s WALL (      35 calls)
     add_vuspsi   :      2.37s CPU      2.40s WALL (      35 calls)

     General routines
     calbec       :      2.61s CPU      2.68s WALL (      46 calls)
     fft          :     21.94s CPU     27.24s WALL (     108 calls)
     ffts         :      1.79s CPU      2.45s WALL (      11 calls)
     fftw         :     56.88s CPU     62.02s WALL (     551 calls)

     Parallel routines

     PWSCF        :   3m27.17s CPU   4m 7.77s WALL


   This run was terminated on:  16:59:17  12Oct2023            

=------------------------------------------------------------------------------=
   JOB DONE.
=------------------------------------------------------------------------------=
