
     Program PWSCF v.7.2 starts on 12Oct2023 at 16:56: 8 

     This program is part of the open-source Quantum ESPRESSO suite
     for quantum simulation of materials; please cite
         "P. Giannozzi et al., J. Phys.:Condens. Matter 21 395502 (2009);
         "P. Giannozzi et al., J. Phys.:Condens. Matter 29 465901 (2017);
         "P. Giannozzi et al., J. Chem. Phys. 152 154105 (2020);
          URL http://www.quantum-espresso.org", 
     in publications or presentations arising from this work. More details at
     http://www.quantum-espresso.org/quote

     Parallel version (MPI), running on    32 processors

     MPI processes distributed on     1 nodes
     246639 MiB available memory on the printing compute node when the environment starts

     Reading input from 22AcOHUracil100_efficiency_dimer.in
Warning: card &CELL ignored
Warning: card / ignored

     Current dimensions of program PWSCF are:
     Max number of different atomic species (ntypx) = 10
     Max number of k-points (npk) =  40000
     Max angular momentum in pseudopotentials (lmaxx) =  4
     file C.pbe-n-kjpaw_psl.1.0.0.UPF: wavefunction(s)  2S 2P renormalized
     file O.pbe-nl-kjpaw_psl.1.0.0.UPF: wavefunction(s)  2S 2P renormalized
     file H.pbe-kjpaw_psl.1.0.0.UPF: wavefunction(s)  1S renormalized
     file N.pbe-n-kjpaw_psl.1.0.0.UPF: wavefunction(s)  2S renormalized

     IMPORTANT: XC functional enforced from input :
     Exchange-correlation= PBE
                           (   1   4   3   4   0   0   0)
     Any further DFT definition will be discarded
     Please, verify this is what you really want


     gamma-point specific algorithms are used

     R & G space division:  proc/nbgrp/npool/nimage =      32
     Subspace diagonalization in iterative solution of the eigenvalue problem:
     a serial algorithm will be used


     Parallelization info
     --------------------
     sticks:   dense  smooth     PW     G-vecs:    dense   smooth      PW
     Min        6395    6395   1598              2177048  2177048  272114
     Max        6398    6398   1600              2177062  2177062  272124
     Sum      204693  204693  51189             69665707 69665707 8707803

     Using Slab Decomposition



     bravais-lattice index     =            0
     lattice parameter (alat)  =      66.1404  a.u.
     unit-cell volume          =  289334.8415 (a.u.)^3
     number of atoms/cell      =           20
     number of atomic types    =            4
     number of electrons       =        66.00
     number of Kohn-Sham states=           33
     kinetic-energy cutoff     =     147.0000  Ry
     charge density cutoff     =     588.0000  Ry
     scf convergence threshold =      1.0E-08
     mixing beta               =       0.7000
     number of iterations used =            8  plain     mixing
     Exchange-correlation= PBE
                           (   1   4   3   4   0   0   0)

     celldm(1)=  66.140414  celldm(2)=   0.000000  celldm(3)=   0.000000
     celldm(4)=   0.000000  celldm(5)=   0.000000  celldm(6)=   0.000000

     crystal axes: (cart. coord. in units of alat)
               a(1) = (   1.000000   0.000000   0.000000 )  
               a(2) = (   0.000000   1.000000   0.000000 )  
               a(3) = (   0.000000   0.000000   1.000000 )  

     reciprocal axes: (cart. coord. in units 2 pi/alat)
               b(1) = (  1.000000  0.000000  0.000000 )  
               b(2) = (  0.000000  1.000000  0.000000 )  
               b(3) = (  0.000000  0.000000  1.000000 )  


     PseudoPot. # 1 for C  read from file:
     /home/users/klimj2am/src/pslibrary.1.0.0/pbe/PSEUDOPOTENTIALS/C.pbe-n-kjpaw_psl.1.0.0.UPF
     MD5 check sum: 9d4797b4e2669f30c50dcc814f8da1dd
     Pseudo is Projector augmented-wave + core cor, Zval =  4.0
     Generated using 'atomic' code by A. Dal Corso  v.7.2
     Shape of augmentation charge: PSQ
     Using radial grid of 1073 points,  4 beta functions with: 
                l(1) =   0
                l(2) =   0
                l(3) =   1
                l(4) =   1
     Q(r) pseudized with 0 coefficients 


     PseudoPot. # 2 for O  read from file:
     /home/users/klimj2am/src/pslibrary.1.0.0/pbe/PSEUDOPOTENTIALS/O.pbe-nl-kjpaw_psl.1.0.0.UPF
     MD5 check sum: 3be12c084656f77eefcab7bec6207024
     Pseudo is Projector augmented-wave + core cor, Zval =  6.0
     Generated using 'atomic' code by A. Dal Corso  v.7.2
     Shape of augmentation charge: PSQ
     Using radial grid of 1095 points,  4 beta functions with: 
                l(1) =   0
                l(2) =   0
                l(3) =   1
                l(4) =   1
     Q(r) pseudized with 0 coefficients 


     PseudoPot. # 3 for H  read from file:
     /home/users/klimj2am/src/pslibrary.1.0.0/pbe/PSEUDOPOTENTIALS/H.pbe-kjpaw_psl.1.0.0.UPF
     MD5 check sum: 220281c0717fd894cece6904c624ceaa
     Pseudo is Projector augmented-wave, Zval =  1.0
     Generated using 'atomic' code by A. Dal Corso  v.7.2
     Shape of augmentation charge: PSQ
     Using radial grid of  929 points,  2 beta functions with: 
                l(1) =   0
                l(2) =   0
     Q(r) pseudized with 0 coefficients 


     PseudoPot. # 4 for N  read from file:
     /home/users/klimj2am/src/pslibrary.1.0.0/pbe/PSEUDOPOTENTIALS/N.pbe-n-kjpaw_psl.1.0.0.UPF
     MD5 check sum: ed3381810ced4c04e88f7c2008d4036c
     Pseudo is Projector augmented-wave + core cor, Zval =  5.0
     Generated using 'atomic' code by A. Dal Corso  v.7.2
     Shape of augmentation charge: PSQ
     Using radial grid of 1085 points,  4 beta functions with: 
                l(1) =   0
                l(2) =   0
                l(3) =   1
                l(4) =   1
     Q(r) pseudized with 0 coefficients 


     atomic species   valence    mass     pseudopotential
        C              4.00    12.01100     C ( 1.00)
        O              6.00    15.99900     O ( 1.00)
        H              1.00     1.00800     H ( 1.00)
        N              5.00    14.00700     N ( 1.00)

     No symmetry found



   Cartesian axes

     site n.     atom                  positions (alat units)
         1           C   tau(   1) = (  -0.0318179   0.0379149   0.0078619  )
         2           O   tau(   2) = (  -0.0133452   0.0671254   0.0131868  )
         3           O   tau(   3) = (  -0.0165168   0.0039120   0.0014176  )
         4           H   tau(   4) = (   0.0118092   0.0058073   0.0015853  )
         5           C   tau(   5) = (  -0.0746121   0.0367483   0.0079246  )
         6           H   tau(   6) = (  -0.0859042   0.0650539   0.0133083  )
         7           H   tau(   7) = (  -0.0846930   0.0261502  -0.0194857  )
         8           H   tau(   8) = (  -0.0843747   0.0169085   0.0297497  )
         9           N   tau(   9) = (   0.1199135   0.0310903   0.0052243  )
        10           H   tau(  10) = (   0.1311480   0.0049363   0.0003180  )
        11           C   tau(  11) = (   0.1462429   0.0610365   0.0104087  )
        12           O   tau(  12) = (   0.1804471   0.0547995   0.0088978  )
        13           C   tau(  13) = (   0.1279839   0.0975926   0.0172832  )
        14           H   tau(  14) = (   0.1456848   0.1223619   0.0216111  )
        15           C   tau(  15) = (   0.0894957   0.0998780   0.0181226  )
        16           H   tau(  16) = (   0.0745574   0.1264051   0.0231311  )
        17           N   tau(  17) = (   0.0665320   0.0687157   0.0126825  )
        18           H   tau(  18) = (   0.0372734   0.0707142   0.0133622  )
        19           C   tau(  19) = (   0.0808158   0.0329950   0.0059918  )
        20           O   tau(  20) = (   0.0604720   0.0047234   0.0010355  )

     number of k points=     1
                       cart. coord. in units 2pi/alat
        k(    1) = (   0.0000000   0.0000000   0.0000000), wk =   2.0000000

     Dense  grid: 34832854 G-vectors     FFT dimensions: ( 512, 512, 512)

     Estimated max dynamical RAM per process >       1.94 GB

     Estimated total dynamical RAM >      62.21 GB

     Initial potential from superposition of free atoms

     starting charge      65.9997, renormalised to      66.0000

     negative rho (up, down):  1.413E-03 0.000E+00
     Starting wfcs are   56 randomized atomic wfcs
     Checking if some PAW data can be deallocated... 

     total cpu time spent up to now is       52.8 secs

     Self-consistent Calculation

     iteration #  1     ecut=   147.00 Ry     beta= 0.70
     Davidson diagonalization with overlap
     ethr =  1.00E-02,  avg # of iterations =  2.0

     negative rho (up, down):  1.781E-03 0.000E+00

     total cpu time spent up to now is       83.9 secs

     total energy              =    -342.40928456 Ry
     estimated scf accuracy    <       2.45259518 Ry

     iteration #  2     ecut=   147.00 Ry     beta= 0.70
     Davidson diagonalization with overlap
     ethr =  3.72E-03,  avg # of iterations =  6.0

     negative rho (up, down):  1.689E-03 0.000E+00

     total cpu time spent up to now is      119.1 secs

     total energy              =    -342.94743853 Ry
     estimated scf accuracy    <       1.37476929 Ry

     iteration #  3     ecut=   147.00 Ry     beta= 0.70
     Davidson diagonalization with overlap
     ethr =  2.08E-03,  avg # of iterations =  4.0

     negative rho (up, down):  1.719E-03 0.000E+00

     total cpu time spent up to now is      149.9 secs

     total energy              =    -343.17437683 Ry
     estimated scf accuracy    <       0.29510445 Ry

     iteration #  4     ecut=   147.00 Ry     beta= 0.70
     Davidson diagonalization with overlap
     ethr =  4.47E-04,  avg # of iterations =  5.0

     negative rho (up, down):  1.793E-03 0.000E+00

     total cpu time spent up to now is      181.3 secs

     total energy              =    -343.24740167 Ry
     estimated scf accuracy    <       0.01589492 Ry

     iteration #  5     ecut=   147.00 Ry     beta= 0.70
     Davidson diagonalization with overlap
     ethr =  2.41E-05,  avg # of iterations =  6.0

     negative rho (up, down):  1.805E-03 0.000E+00

     total cpu time spent up to now is      215.9 secs

     total energy              =    -343.25124189 Ry
     estimated scf accuracy    <       0.00749241 Ry

     iteration #  6     ecut=   147.00 Ry     beta= 0.70
     Davidson diagonalization with overlap
     ethr =  1.14E-05,  avg # of iterations =  4.0

     negative rho (up, down):  1.813E-03 0.000E+00

     total cpu time spent up to now is      244.7 secs

     total energy              =    -343.25174384 Ry
     estimated scf accuracy    <       0.00127332 Ry

     iteration #  7     ecut=   147.00 Ry     beta= 0.70
     Davidson diagonalization with overlap
     ethr =  1.93E-06,  avg # of iterations =  4.0

     negative rho (up, down):  1.818E-03 0.000E+00

     total cpu time spent up to now is      276.4 secs

     total energy              =    -343.25209175 Ry
     estimated scf accuracy    <       0.00011174 Ry

     iteration #  8     ecut=   147.00 Ry     beta= 0.70
     Davidson diagonalization with overlap
     ethr =  1.69E-07,  avg # of iterations =  5.0

     negative rho (up, down):  1.819E-03 0.000E+00

     total cpu time spent up to now is      311.0 secs

     total energy              =    -343.25211678 Ry
     estimated scf accuracy    <       0.00004384 Ry

     iteration #  9     ecut=   147.00 Ry     beta= 0.70
     Davidson diagonalization with overlap
     ethr =  6.64E-08,  avg # of iterations =  5.0

     negative rho (up, down):  1.820E-03 0.000E+00

     total cpu time spent up to now is      342.7 secs

     total energy              =    -343.25212514 Ry
     estimated scf accuracy    <       0.00001019 Ry

     iteration # 10     ecut=   147.00 Ry     beta= 0.70
     Davidson diagonalization with overlap
     ethr =  1.54E-08,  avg # of iterations =  4.0

     negative rho (up, down):  1.820E-03 0.000E+00

     total cpu time spent up to now is      373.5 secs

     total energy              =    -343.25212709 Ry
     estimated scf accuracy    <       0.00000141 Ry

     iteration # 11     ecut=   147.00 Ry     beta= 0.70
     Davidson diagonalization with overlap
     ethr =  2.13E-09,  avg # of iterations =  4.0

     negative rho (up, down):  1.820E-03 0.000E+00

     total cpu time spent up to now is      404.9 secs

     total energy              =    -343.25212733 Ry
     estimated scf accuracy    <       0.00000018 Ry

     iteration # 12     ecut=   147.00 Ry     beta= 0.70
     Davidson diagonalization with overlap
     ethr =  2.73E-10,  avg # of iterations =  5.0

     negative rho (up, down):  1.820E-03 0.000E+00

     total cpu time spent up to now is      438.4 secs

     total energy              =    -343.25212736 Ry
     estimated scf accuracy    <       0.00000005 Ry

     iteration # 13     ecut=   147.00 Ry     beta= 0.70
     Davidson diagonalization with overlap
     ethr =  8.28E-11,  avg # of iterations =  4.0

     negative rho (up, down):  1.820E-03 0.000E+00

     total cpu time spent up to now is      469.4 secs

     total energy              =    -343.25212737 Ry
     estimated scf accuracy    <       0.00000001 Ry

     iteration # 14     ecut=   147.00 Ry     beta= 0.70
     Davidson diagonalization with overlap
     ethr =  1.93E-11,  avg # of iterations =  5.0

     negative rho (up, down):  1.820E-03 0.000E+00

     total cpu time spent up to now is      499.5 secs

     End of self-consistent calculation

          k = 0.0000 0.0000 0.0000 (****** PWs)   bands (ev):

   -27.9696 -27.4549 -26.3686 -25.6556 -24.7925 -23.4448 -20.0116 -18.9937
   -17.4270 -16.7559 -15.2865 -15.0214 -14.0718 -13.1244 -12.3899 -12.2020
   -11.7962 -11.7871 -11.6885 -11.3036 -10.5493 -10.2130 -10.1956 -10.1298
    -9.6901  -9.3459  -9.2531  -7.9361  -7.4415  -7.2739  -6.8379  -6.3415
    -6.2791

     highest occupied level (ev):    -6.2791

!    total energy              =    -343.25212737 Ry
     total all-electron energy =     -1287.821853 Ry
     estimated scf accuracy    <          7.7E-10 Ry

     The total energy is the sum of the following terms:
     one-electron contribution =   -1468.35663087 Ry
     hartree contribution      =     743.89830261 Ry
     xc contribution           =     -74.81496525 Ry
     ewald contribution        =     547.33839891 Ry
     one-center paw contrib.   =     -91.31723276 Ry

     charge density inside the Wigner-Seitz cell:   66.00000000

     reference position (x0):         3.70436773    3.19216722    0.59196830 bohr

     Dipole moments (with respect to x0):
     Elect  -1.3722   0.6453   0.1293 au (Ha),  -3.4878   1.6401   0.3287 Debye
     Ionic  -0.0000   0.0000   0.0000 au (Ha),  -0.0000   0.0000   0.0000 Debye
     Total  -1.3722   0.6453   0.1293 au (Ha),  -3.4878   1.6401   0.3287 Debye

     Electrons quadrupole moment      -2270.36714131 a.u. (Ha)
          Ions quadrupole moment       2111.78009832 a.u. (Ha)
         Total quadrupole moment       -158.58704299 a.u. (Ha)

     *********    MAKOV-PAYNE CORRECTION    *********

     Makov-Payne correction with Madelung constant =   2.8373

     Makov-Payne correction     0.00000000 Ry =  0.000 eV (1st order, 1/a0)
                                0.00003353 Ry =  0.000 eV (2nd order, 1/a0^3)
                                0.00003353 Ry =  0.000 eV (total)

!    Total+Makov-Payne energy  =    -343.25209384 Ry
     Corrected vacuum level    =       0.03130176 eV

     convergence has been achieved in  14 iterations

     Writing all to output data dir ./pwscf.save/

     init_run     :     47.96s CPU     51.78s WALL (       1 calls)
     electrons    :    384.42s CPU    449.62s WALL (       1 calls)

     Called by init_run:
     wfcinit      :      7.97s CPU      8.96s WALL (       1 calls)
     potinit      :      5.35s CPU      6.21s WALL (       1 calls)
     hinit0       :      4.12s CPU      4.49s WALL (       1 calls)

     Called by electrons:
     c_bands      :    225.20s CPU    244.22s WALL (      14 calls)
     sum_band     :     87.75s CPU    106.18s WALL (      14 calls)
     v_of_rho     :     32.34s CPU     43.25s WALL (      15 calls)
     newd         :     31.40s CPU     45.94s WALL (      15 calls)
     PAW_pot      :      0.39s CPU      0.41s WALL (      15 calls)
     mix_rho      :      8.78s CPU     11.56s WALL (      14 calls)

     Called by c_bands:
     init_us_2    :      2.15s CPU      2.37s WALL (      29 calls)
     init_us_2:cp :      2.15s CPU      2.37s WALL (      29 calls)
     regterg      :    220.87s CPU    239.77s WALL (      14 calls)

     Called by *egterg:
     rdiaghg      :      0.09s CPU      0.10s WALL (      77 calls)
     h_psi        :    188.95s CPU    205.76s WALL (      78 calls)
     s_psi        :      9.57s CPU      9.62s WALL (      78 calls)
     g_psi        :      0.58s CPU      0.59s WALL (      63 calls)

     Called by h_psi:
     h_psi:calbec :      8.63s CPU      8.79s WALL (      78 calls)
     vloc_psi     :    169.35s CPU    185.93s WALL (      78 calls)
     add_vuspsi   :      9.75s CPU      9.79s WALL (      78 calls)

     General routines
     calbec       :     10.85s CPU     11.04s WALL (      92 calls)
     fft          :     27.66s CPU     34.66s WALL (     135 calls)
     ffts         :      2.19s CPU      3.07s WALL (      14 calls)
     fftw         :    157.01s CPU    175.68s WALL (    1710 calls)

     Parallel routines

     PWSCF        :   7m15.73s CPU   8m29.39s WALL


   This run was terminated on:  17: 4:37  12Oct2023            

=------------------------------------------------------------------------------=
   JOB DONE.
=------------------------------------------------------------------------------=
