
 Primary working directories    : /scratch/sirous/44736/molpro.484jnMiNqz
 Secondary working directories  : /scratch/sirous/44736/molpro.484jnMiNqz
 Wavefunction directory         : /scratch/sirous/44736/
 Main file repository           : /scratch/sirous/44736/molpro.484jnMiNqz/

 id        : karlovklimes

 Nodes                      nprocs
 nc-20.cc.karlov.mff.cuni.cz    4

 Using customized tuning parameters: mindgm=1; mindgv=20; mindgc=4; mindgr=1; noblas=0; minvec=7
 default implementation of scratch files=sf  


 Variables initialized (934), CPU time= 0.00 sec
 ***,CH3C6H4CN+CF3CN+BF3
 memory,500,m
 gdirect
 gthresh,energy=1.d-8,twoint=1.d-19,oneint=1.d-19,zero=1.d-15,orbital=1.d-8,grid=1.d-8
 symmetry,nosym
 geomtyp=xyz
                                                                                 ! Geometry
 geometry={
 O1        -0.786562022    0.045168441     -0.007189119
 H1        0.177706774    0.012695896     -0.006835389
 C1        -1.247990941    -1.290283536     0.001083621
 H2        -2.334277443    -1.2588971     0.0002212
 H3        -0.925965746    -1.849768096     -0.880445382
 H4        -0.927027831    -1.838462882     0.89007652
 O2        6.130133224081738    -0.1826471543226823     -0.00044586329403458174
 H5        6.569337363081738    0.2055050446773177     -0.7603185452940345
 H6        6.568017518081738    0.21995712467731768     0.7526436687059654
 }
 
 
 
 basis=avtz
 
 
 
                                                                                 ! Dimer Calculation
 {rks,pbe,accu=1.d-8;orbital,2101.2}
 eab_PBE=energy
 
 
                                                                                 !monomer A
 dummy,7,8,9;                                                                    ! NOW MONOMER B IS DUMMY
 {rks,pbe,accu=1.d-8;orbital,2201.2}
 ea_PBE=energy
                                                                                 !monomer B
 dummy,1,2,3,4,5,6;                                                              !NOW MONOMER A IS DUMMY
 {rks,pbe,accu=1.d-8;orbital,2301.2}
 eb_PBE=energy
 
 E_AB_int=eab_PBE-ea_PBE-eb_PBE
 
 
 text,results in hartree
 show,E_AB_int
 
 Commands  initialized (763), CPU time= 0.01 sec, 617 directives.
 Default parameters read. Elapsed time= 0.23 sec

 Checking input...
 Passed
1


                                         ***  PROGRAM SYSTEM MOLPRO  ***
                                       Copyright, TTI GmbH Stuttgart, 2015
                                    Version 2019.2 linked Jun  8 2019 11:26:33


 **********************************************************************************************************************************
 LABEL *   CH3C6H4CN+CF3CN+BF3                                                           
  64 bit mpp version                                                                     DATE: 13-Oct-19          TIME: 15:59:29  
 **********************************************************************************************************************************

 SHA1:             8135a10abc80eafa5b3ae28ffc55be4890dc4c84
 **********************************************************************************************************************************

 THRESHOLDS:

 ZERO    =  1.00D-15  ONEINT  =  1.00D-19  TWOINT  =  1.00D-19  PREFAC  =  1.00D-14  XXXXXX  =  1.00D-09  EORDER  =  1.00D-04
 ENERGY  =  1.00D-08  ETEST   =  0.00D+00  EDENS   =  0.00D+00  THRDEDEF=  1.00D-06  GRADIENT=  1.00D-02  STEP    =  1.00D-03
 ORBITAL =  1.00D-08  CIVEC   =  1.00D-05  COEFF   =  1.00D-04  PRINTCI =  5.00D-02  PUNCHCI =  9.90D+01  OPTGRAD =  3.00D-04
 OPTENERG=  1.00D-06  OPTSTEP =  3.00D-04  THRGRAD =  1.00D-10  COMPRESS=  1.00D-11  VARMIN  =  1.00D-07  VARMAX  =  1.00D-03
 THRDOUB =  0.00D+00  THRDIV  =  1.00D-05  THRRED  =  1.00D-07  THRPSP  =  1.00D+00  THRDC   =  1.00D-10  THRCS   =  1.00D-10
 THRNRM  =  1.00D-08  THREQ   =  0.00D+00  THRDE   =  1.00D+00  THRREF  =  1.00D-05  SPARFAC =  1.00D+00  THRDLP  =  1.00D-07
 THRDIA  =  1.00D-10  THRDLS  =  1.00D-07  THRGPS  =  0.00D+00  THRKEX  =  0.00D+00  THRDIS  =  2.00D-01  THRVAR  =  1.00D-10
 THRLOC  =  1.00D-06  THRGAP  =  1.00D-06  THRLOCT = -1.00D+00  THRGAPT = -1.00D+00  THRORB  =  1.00D-06  THRMLTP =  0.00D+00
 THRCPQCI=  1.00D-10  KEXTA   =  0.00D+00  THRCOARS=  0.00D+00  SYMTOL  =  1.00D-06  GRADTOL =  1.00D-06  THROVL  =  1.00D-08
 THRORTH =  1.00D-08  GRID    =  1.00D-08  GRIDMAX =  1.00D-03  DTMAX   =  0.00D+00  THROCCDE=  1.00D-01  THROCCDE=  1.00D-01
 THRPRINT=  2.50D-01


 Variable memory set to  500000000 words,  buffer space 

 SETTING GEOMTYP        =    XYZ
 ZSYMEL=NOSYM

 SETTING BASIS          =    AVTZ


 Recomputing integrals since basis changed


 Using spherical harmonics

 Library entry O      S aug-cc-pVTZ          selected for orbital group  1
 Library entry O      P aug-cc-pVTZ          selected for orbital group  1
 Library entry O      D aug-cc-pVTZ          selected for orbital group  1
 Library entry O      F aug-cc-pVTZ          selected for orbital group  1
 Library entry H      S aug-cc-pVTZ          selected for orbital group  2
 Library entry H      P aug-cc-pVTZ          selected for orbital group  2
 Library entry H      D aug-cc-pVTZ          selected for orbital group  2
 Library entry C      S aug-cc-pVTZ          selected for orbital group  3
 Library entry C      P aug-cc-pVTZ          selected for orbital group  3
 Library entry C      D aug-cc-pVTZ          selected for orbital group  3
 Library entry C      F aug-cc-pVTZ          selected for orbital group  3


 PROGRAM * SEWARD (Integral evaluation for generally contracted gaussian basis sets)     Author: Roland Lindh, 1990

 Geometry written to block  1 of record 700


 Point group  C1  



 ATOMIC COORDINATES

 NR  ATOM    CHARGE       X              Y              Z

   1  O1      8.00   -1.486386802    0.085355983   -0.013585466
   2  H1      1.00    0.335817133    0.023991766   -0.012917013
   3  C1      6.00   -2.358361084   -2.438282506    0.002047747
   4  H2      1.00   -4.411145066   -2.378970738    0.000418007
   5  H3      1.00   -1.749821661   -3.495555095   -1.663800640
   6  H4      1.00   -1.751828710   -3.474191337    1.682000853
   7  O2      8.00   11.584272901   -0.345153099   -0.000842560
   8  H5      1.00   12.414248436    0.388348252   -1.436793818
   9  H6      1.00   12.411754291    0.415658725    1.422290403

 Bond lengths in Bohr (Angstrom)

 1-2  1.823237010  1-3  2.670081416  3-4  2.053641307  3-5  2.064750931  3-6  2.064759324
     ( 0.964815476)     ( 1.412946237)     ( 1.086740179)     ( 1.092619139)     ( 1.092623580)

 7-8  1.813515822  7-9  1.813523507
     ( 0.959671245)     ( 0.959675312)

 Bond angles

  1-3-4  107.40559298   1-3-5  112.51964705   1-3-6  112.52114043   2-1-3  107.13200477

  4-3-5  107.98411747   4-3-6  107.98497413   5-3-6  108.23763291   8-7-9  104.05491273

 NUCLEAR CHARGE:                   28
 NUMBER OF PRIMITIVE AOS:         363
 NUMBER OF SYMMETRY AOS:          324
 NUMBER OF CONTRACTIONS:          276   (  276A   )
 NUMBER OF CORE ORBITALS:           3   (    3A   )
 NUMBER OF VALENCE ORBITALS:       18   (   18A   )


 NUCLEAR REPULSION ENERGY   62.74985083


 Eigenvalues of metric

         1 0.611E-04 0.723E-04 0.886E-04 0.197E-03 0.377E-03 0.390E-03 0.396E-03 0.458E-03


 OPERATOR DM      FOR CENTER  0  COORDINATES:    0.000000    0.000000    0.000000


 **********************************************************************************************************************************
 DATASETS  * FILE   NREC   LENGTH (MB)   RECORD NAMES
              1      18       32.92       500      610      700      900      950      970     1000      129      960     1100   
                                          VAR    BASINP    GEOM    SYMINP    ZMAT    AOBASIS   BASIS     P2S    ABASIS      S 
                                         1400     1410     1200     1210     1080     1600     1650     1700   
                                           T        V       H0       H01     AOSYM     SMH    MOLCAS    OPER   

 PROGRAMS   *        TOTAL       INT
 CPU TIMES  *         0.50      0.33
 REAL TIME  *         1.84 SEC
 DISK USED  *        33.40 MB (local),      133.59 MB (total)
 GA USED    *         0.00 MB       (max)       0.00 MB       (current)
 **********************************************************************************************************************************

 Density functional group PBE=PBEX+PBEC
 Functional: PBEX(Automatically generated (new) PBEX)                          Gradient terms: 1
 Functional: PBEC(Automatically generated (new) PBEC)                          Gradient terms: 1
 Use libxcgrid:  F
 Use grid at  1800.2

 Functional: PBEX                      Factor:  1.0000
 Functional: PBEC                      Factor:  1.0000

 Generated new metagrid on record  1800.2 with target accuracy 1.0D-08 and 81788 points in CPU time    0.2
 Computed new grid on record 1800.1 in CPU time    0.3
  223668 words reserved for DFT integration

 PROGRAM * RKS-SCF (Restricted closed shell Kohn-Sham)     Authors: W. Meyer, H.-J. Werner, P.J. Knowles, 1993

 NUMBER OF ELECTRONS:      14+   14-    SPACE SYMMETRY=1    SPIN SYMMETRY: Singlet 
 CONVERGENCE THRESHOLDS:    1.00E-04 (Density)    1.00E-08 (Energy)
 INTEGRAL THRESHOLDS:       1.00E-11 (Initial)    1.00E-11 (Final)
 MAX. NUMBER OF ITERATIONS:       60
 INTERPOLATION TYPE:            DIIS
 INTERPOLATION STEPS:              2 (START)      1 (STEP)
 LEVEL SHIFTS:                  0.00 (CLOSED)  0.00 (OPEN) 



 Use fine grid record 1800.2 for energy threshold  1.0D-08
 Orbital guess generated from atomic densities. Full valence occupancy:   21

 Molecular orbital dump at record        2101.2

 Initial occupancy:  14

 Direct Fock-matrix evaluation.        Authors: Roland Lindh & Martin Schuetz (1993/96)

 Integral Threshold:                  0.1D-10
 Threshold for writing integrals:     0.1D-06
 Prescreening on density matrix:        ON 
 Calculation will be performed fully direct        

 ITERATION   DDIFF            GRAD            ENERGY        2-EL.EN.            DIPOLE MOMENTS         DIIS   CPU(IT)  CPU(TOT)
    1      0.000D+00      0.000D+00      -191.82723461    324.311450    1.44696   -0.03073   -0.00144    0      6.6      9.3     start
    2      0.000D+00      0.786D-02      -191.22452357    288.349723   -0.40598   -0.08465    0.00118    1      5.5     14.9     diag
    3      0.153D-01      0.164D-01      -192.00295687    312.950497    0.94854   -0.05376   -0.00082    2      5.5     20.4     diag
    4      0.985D-02      0.156D-02      -192.00923047    312.776735    0.93102   -0.00921   -0.00099    3      5.2     25.7     diag
    5      0.167D-02      0.687D-03      -192.01069413    312.428555    0.92058   -0.02290   -0.00090    4      5.1     30.8     diag
    6      0.600D-03      0.132D-03      -192.01072483    312.442338    0.91898   -0.01379   -0.00097    5      5.0     35.8     diag
    7      0.103D-03      0.718D-04      -192.01073724    312.475177    0.91912   -0.02171   -0.00091    6      4.9     40.6     diag
    8      0.466D-04      0.156D-04      -192.01073791    312.485482    0.92019   -0.02063   -0.00092    7      4.7     45.3     diag
    9      0.935D-05      0.592D-06      -192.01073791    312.485766    0.92008   -0.02056   -0.00092    8      4.3     49.6     diag
   10      0.763D-06      0.187D-06      -192.01073791    312.485747    0.92015   -0.02063   -0.00092    0      4.2     53.8     orth

 Final occupancy:  14

 !RKS STATE  1.1 Energy              -192.010737907713
 Nuclear energy                        62.74985083
 One-electron energy                 -386.41414267
 Two-electron energy                  156.24287360
 Density functional                   -24.58931967     PBEX=-23.68339265 PBEC= -0.90592702
 Virial quotient                       -1.00554576
 !RKS STATE  1.1 Dipole moment          0.92014748    -0.02062849    -0.00092202
 Dipole moment /Debye                   2.33862843    -0.05242895    -0.00234338

 Orbital energies:

         1.1          2.1          3.1          4.1          5.1          6.1          7.1          8.1          9.1         10.1
    -18.763010   -18.755051    -9.919039    -0.935970    -0.935375    -0.616567    -0.486770    -0.458690    -0.388666    -0.378990

        11.1         12.1         13.1         14.1         15.1         16.1
     -0.346970    -0.292345    -0.269328    -0.228251    -0.037315    -0.019720


 HOMO     14.1    -0.228251 =      -6.2110eV
 LUMO     15.1    -0.037315 =      -1.0154eV
 LUMO-HOMO         0.190936 =       5.1956eV


 **********************************************************************************************************************************
 DATASETS  * FILE   NREC   LENGTH (MB)   RECORD NAMES
              1      19       32.92       500      610      700      900      950      970     1000      129      960     1100   
                                          VAR    BASINP    GEOM    SYMINP    ZMAT    AOBASIS   BASIS     P2S    ABASIS      S 
                                         1400     1410     1200     1210     1080     1600     1650     1700     1800   
                                           T        V       H0       H01     AOSYM     SMH    MOLCAS    OPER     GRID   

              2       5        4.46       700     1000      520     1800     2101   
                                         GEOM     BASIS   MCVARS    GRID      RKS  

 PROGRAMS   *        TOTAL   RKS-SCF       INT
 CPU TIMES  *        54.68     54.18      0.33
 REAL TIME  *        57.39 SEC
 DISK USED  *        42.66 MB (local),      170.63 MB (total)
 SF USED    *         0.92 MB
 GA USED    *         2.68 MB       (max)       2.68 MB       (current)
 **********************************************************************************************************************************
 SETTING EAB_PBE        =      -192.01073791  AU                              

 Dummy atoms: O2  H5  H6


 Recomputing one-electron integrals since nuclear charges changed


 PROGRAM * SEWARD (Integral evaluation for generally contracted gaussian basis sets)     Author: Roland Lindh, 1990

 Geometry written to block  1 of record 700


 Point group  C1  



 ATOMIC COORDINATES

 NR  ATOM    CHARGE       X              Y              Z

   1  O1      8.00   -1.486386802    0.085355983   -0.013585466
   2  H1      1.00    0.335817133    0.023991766   -0.012917013
   3  C1      6.00   -2.358361084   -2.438282506    0.002047747
   4  H2      1.00   -4.411145066   -2.378970738    0.000418007
   5  H3      1.00   -1.749821661   -3.495555095   -1.663800640
   6  H4      1.00   -1.751828710   -3.474191337    1.682000853
   7  O2      0.00   11.584272901   -0.345153099   -0.000842560
   8  H5      0.00   12.414248436    0.388348252   -1.436793818
   9  H6      0.00   12.411754291    0.415658725    1.422290403

 Bond lengths in Bohr (Angstrom)

 1-2  1.823237010  1-3  2.670081416  3-4  2.053641307  3-5  2.064750931  3-6  2.064759324
     ( 0.964815476)     ( 1.412946237)     ( 1.086740179)     ( 1.092619139)     ( 1.092623580)

 7-8  1.813515822  7-9  1.813523507
     ( 0.959671245)     ( 0.959675312)

 Bond angles

  1-3-4  107.40559298   1-3-5  112.51964705   1-3-6  112.52114043   2-1-3  107.13200477

  4-3-5  107.98411747   4-3-6  107.98497413   5-3-6  108.23763291   8-7-9  104.05491273

 NUCLEAR CHARGE:                   18
 NUMBER OF PRIMITIVE AOS:         363
 NUMBER OF SYMMETRY AOS:          324
 NUMBER OF CONTRACTIONS:          276   (  276A   )
 NUMBER OF CORE ORBITALS:           2   (    2A   )
 NUMBER OF VALENCE ORBITALS:       12   (   12A   )

 MOLECULE CHANGED: INITIALIZING OCCUPATION AND DUMP RECORDS


 NUCLEAR REPULSION ENERGY   40.42326361


 Eigenvalues of metric

         1 0.611E-04 0.723E-04 0.886E-04 0.197E-03 0.377E-03 0.390E-03 0.396E-03 0.458E-03


 OPERATOR DM      FOR CENTER  0  COORDINATES:    0.000000    0.000000    0.000000


 **********************************************************************************************************************************
 DATASETS  * FILE   NREC   LENGTH (MB)   RECORD NAMES
              1      19       32.92       500      610      700      900      950      970     1000      129      960     1100   
                                          VAR    BASINP    GEOM    SYMINP    ZMAT    AOBASIS   BASIS     P2S    ABASIS      S 
                                         1400     1410     1200     1210     1080     1600     1650     1700     1800   
                                           T        V       H0       H01     AOSYM     SMH    MOLCAS    OPER     GRID   

              2       5        4.46       700     1000      520     1800     2101   
                                         GEOM     BASIS   MCVARS    GRID      RKS  

 PROGRAMS   *        TOTAL       INT   RKS-SCF       INT
 CPU TIMES  *        54.80      0.11     54.18      0.33
 REAL TIME  *        57.60 SEC
 DISK USED  *        42.66 MB (local),      170.63 MB (total)
 SF USED    *         0.92 MB
 GA USED    *         2.68 MB       (max)       2.68 MB       (current)
 **********************************************************************************************************************************

 Density functional group PBE=PBEX+PBEC
 Functional: PBEX(Automatically generated (new) PBEX)                          Gradient terms: 1
 Functional: PBEC(Automatically generated (new) PBEC)                          Gradient terms: 1
 Use libxcgrid:  F
 Use grid at  1800.2

 Functional: PBEX                      Factor:  1.0000
 Functional: PBEC                      Factor:  1.0000

 Generated new metagrid on record  1800.2 with target accuracy 1.0D-08 and 81788 points in CPU time    0.3
 Computed new grid on record 1800.1 in CPU time    0.3
  223668 words reserved for DFT integration

 PROGRAM * RKS-SCF (Restricted closed shell Kohn-Sham)     Authors: W. Meyer, H.-J. Werner, P.J. Knowles, 1993

 NUMBER OF ELECTRONS:       9+    9-    SPACE SYMMETRY=1    SPIN SYMMETRY: Singlet 
 CONVERGENCE THRESHOLDS:    1.00E-04 (Density)    1.00E-08 (Energy)
 INTEGRAL THRESHOLDS:       1.00E-11 (Initial)    1.00E-11 (Final)
 MAX. NUMBER OF ITERATIONS:       60
 INTERPOLATION TYPE:            DIIS
 INTERPOLATION STEPS:              2 (START)      1 (STEP)
 LEVEL SHIFTS:                  0.00 (CLOSED)  0.00 (OPEN) 



 Use fine grid record 1800.2 for energy threshold  1.0D-08
 Orbital guess generated from atomic densities. Full valence occupancy:   14

 Molecular orbital dump at record        2201.2

 Initial occupancy:   9

 Direct Fock-matrix evaluation.        Authors: Roland Lindh & Martin Schuetz (1993/96)

 Integral Threshold:                  0.1D-10
 Threshold for writing integrals:     0.1D-06
 Prescreening on density matrix:        ON 
 Calculation will be performed fully direct        

 ITERATION   DDIFF            GRAD            ENERGY        2-EL.EN.            DIPOLE MOMENTS         DIIS   CPU(IT)  CPU(TOT)
    1      0.000D+00      0.000D+00      -115.53026248    199.783915    0.63256   -0.76496    0.00486    0      6.4      9.5     start
    2      0.000D+00      0.678D-02      -115.29227234    179.984801   -0.19330    0.18028   -0.00121    1      5.4     14.9     diag
    3      0.116D-01      0.129D-01      -115.62385376    193.209158    0.38515   -0.61559    0.00389    2      5.4     20.3     diag
    4      0.705D-02      0.182D-02      -115.62961000    192.991663    0.38241   -0.48365    0.00305    3      5.1     25.4     diag
    5      0.128D-02      0.557D-03      -115.63018442    192.828647    0.37806   -0.49234    0.00311    4      5.0     30.4     diag
    6      0.378D-03      0.917D-04      -115.63020016    192.859698    0.37662   -0.49560    0.00313    5      4.8     35.3     diag
    7      0.487D-04      0.132D-04      -115.63020050    192.870718    0.37757   -0.49670    0.00314    6      4.6     39.8     diag
    8      0.778D-05      0.989D-06      -115.63020050    192.870798    0.37735   -0.49653    0.00314    7      4.2     44.1     diag
    9      0.112D-05      0.306D-06      -115.63020050    192.870664    0.37746   -0.49658    0.00314    0      4.0     48.1     orth

 Final occupancy:   9

 !RKS STATE  1.1 Energy              -115.630200499557
 Nuclear energy                        40.42326361
 One-electron energy                 -237.13359278
 Two-electron energy                   96.43533176
 Density functional                   -15.35520309     PBEX=-14.77391224 PBEC= -0.58129085
 Virial quotient                       -1.00560686
 !RKS STATE  1.1 Dipole moment          0.37745542    -0.49658148     0.00313707
 Dipole moment /Debye                   0.95933314    -1.26210155     0.00797312

 Orbital energies:

         1.1          2.1          3.1          4.1          5.1          6.1          7.1          8.1          9.1         10.1
    -18.758496    -9.922177    -0.939396    -0.619777    -0.462100    -0.391882    -0.382132    -0.295593    -0.231560    -0.024854

        11.1
     -0.001373


 HOMO      9.1    -0.231560 =      -6.3011eV
 LUMO     10.1    -0.024854 =      -0.6763eV
 LUMO-HOMO         0.206706 =       5.6247eV


 **********************************************************************************************************************************
 DATASETS  * FILE   NREC   LENGTH (MB)   RECORD NAMES
              1      19       32.92       500      610      700      900      950      970     1000      129      960     1100   
                                          VAR    BASINP    GEOM    SYMINP    ZMAT    AOBASIS   BASIS     P2S    ABASIS      S 
                                         1400     1410     1200     1210     1080     1600     1650     1700     1800   
                                           T        V       H0       H01     AOSYM     SMH    MOLCAS    OPER     GRID   

              2       6       10.02       700     1000      520     1800     2101     2201   
                                         GEOM     BASIS   MCVARS    GRID      RKS      RKS  

 PROGRAMS   *        TOTAL   RKS-SCF       INT   RKS-SCF       INT
 CPU TIMES  *       103.29     48.48      0.11     54.18      0.33
 REAL TIME  *       106.43 SEC
 DISK USED  *        47.90 MB (local),      191.62 MB (total)
 SF USED    *         0.92 MB
 GA USED    *         2.68 MB       (max)       2.68 MB       (current)
 **********************************************************************************************************************************
 SETTING EA_PBE         =      -115.63020050  AU                              

 Dummy atoms: O1  H1  C1  H2  H3  H4


 Recomputing one-electron integrals since nuclear charges changed


 PROGRAM * SEWARD (Integral evaluation for generally contracted gaussian basis sets)     Author: Roland Lindh, 1990

 Geometry written to block  1 of record 700


 Point group  C1  



 ATOMIC COORDINATES

 NR  ATOM    CHARGE       X              Y              Z

   1  O1      0.00   -1.486386802    0.085355983   -0.013585466
   2  H1      0.00    0.335817133    0.023991766   -0.012917013
   3  C1      0.00   -2.358361084   -2.438282506    0.002047747
   4  H2      0.00   -4.411145066   -2.378970738    0.000418007
   5  H3      0.00   -1.749821661   -3.495555095   -1.663800640
   6  H4      0.00   -1.751828710   -3.474191337    1.682000853
   7  O2      8.00   11.584272901   -0.345153099   -0.000842560
   8  H5      1.00   12.414248436    0.388348252   -1.436793818
   9  H6      1.00   12.411754291    0.415658725    1.422290403

 Bond lengths in Bohr (Angstrom)

 1-2  1.823237010  1-3  2.670081416  3-4  2.053641307  3-5  2.064750931  3-6  2.064759324
     ( 0.964815476)     ( 1.412946237)     ( 1.086740179)     ( 1.092619139)     ( 1.092623580)

 7-8  1.813515822  7-9  1.813523507
     ( 0.959671245)     ( 0.959675312)

 Bond angles

  1-3-4  107.40559298   1-3-5  112.51964705   1-3-6  112.52114043   2-1-3  107.13200477

  4-3-5  107.98411747   4-3-6  107.98497413   5-3-6  108.23763291   8-7-9  104.05491273

 NUCLEAR CHARGE:                   10
 NUMBER OF PRIMITIVE AOS:         363
 NUMBER OF SYMMETRY AOS:          324
 NUMBER OF CONTRACTIONS:          276   (  276A   )
 NUMBER OF CORE ORBITALS:           1   (    1A   )
 NUMBER OF VALENCE ORBITALS:        6   (    6A   )

 MOLECULE CHANGED: INITIALIZING OCCUPATION AND DUMP RECORDS


 NUCLEAR REPULSION ENERGY    9.17236909


 Eigenvalues of metric

         1 0.611E-04 0.723E-04 0.886E-04 0.197E-03 0.377E-03 0.390E-03 0.396E-03 0.458E-03


 OPERATOR DM      FOR CENTER  0  COORDINATES:    0.000000    0.000000    0.000000


 **********************************************************************************************************************************
 DATASETS  * FILE   NREC   LENGTH (MB)   RECORD NAMES
              1      19       32.92       500      610      700      900      950      970     1000      129      960     1100   
                                          VAR    BASINP    GEOM    SYMINP    ZMAT    AOBASIS   BASIS     P2S    ABASIS      S 
                                         1400     1410     1200     1210     1080     1600     1650     1700     1800   
                                           T        V       H0       H01     AOSYM     SMH    MOLCAS    OPER     GRID   

              2       6       10.02       700     1000      520     1800     2101     2201   
                                         GEOM     BASIS   MCVARS    GRID      RKS      RKS  

 PROGRAMS   *        TOTAL       INT   RKS-SCF       INT   RKS-SCF       INT
 CPU TIMES  *       103.39      0.10     48.48      0.11     54.18      0.33
 REAL TIME  *       106.65 SEC
 DISK USED  *        47.90 MB (local),      191.62 MB (total)
 SF USED    *         0.92 MB
 GA USED    *         2.68 MB       (max)       2.68 MB       (current)
 **********************************************************************************************************************************

 Density functional group PBE=PBEX+PBEC
 Functional: PBEX(Automatically generated (new) PBEX)                          Gradient terms: 1
 Functional: PBEC(Automatically generated (new) PBEC)                          Gradient terms: 1
 Use libxcgrid:  F
 Use grid at  1800.2

 Functional: PBEX                      Factor:  1.0000
 Functional: PBEC                      Factor:  1.0000

 Generated new metagrid on record  1800.2 with target accuracy 1.0D-08 and 81788 points in CPU time    0.2
 Computed new grid on record 1800.1 in CPU time    0.3
  223668 words reserved for DFT integration

 PROGRAM * RKS-SCF (Restricted closed shell Kohn-Sham)     Authors: W. Meyer, H.-J. Werner, P.J. Knowles, 1993

 NUMBER OF ELECTRONS:       5+    5-    SPACE SYMMETRY=1    SPIN SYMMETRY: Singlet 
 CONVERGENCE THRESHOLDS:    1.00E-04 (Density)    1.00E-08 (Energy)
 INTEGRAL THRESHOLDS:       1.00E-11 (Initial)    1.00E-11 (Final)
 MAX. NUMBER OF ITERATIONS:       60
 INTERPOLATION TYPE:            DIIS
 INTERPOLATION STEPS:              2 (START)      1 (STEP)
 LEVEL SHIFTS:                  0.00 (CLOSED)  0.00 (OPEN) 



 Use fine grid record 1800.2 for energy threshold  1.0D-08
 Orbital guess generated from atomic densities. Full valence occupancy:    7

 Molecular orbital dump at record        2301.2

 Initial occupancy:   5

 Direct Fock-matrix evaluation.        Authors: Roland Lindh & Martin Schuetz (1993/96)

 Integral Threshold:                  0.1D-10
 Threshold for writing integrals:     0.1D-06
 Prescreening on density matrix:        ON 
 Calculation will be performed fully direct        

 ITERATION   DDIFF            GRAD            ENERGY        2-EL.EN.            DIPOLE MOMENTS         DIIS   CPU(IT)  CPU(TOT)
    1      0.000D+00      0.000D+00       -76.29614570     98.132902    0.81436    0.73422   -0.00630    0      6.1      9.1     start
    2      0.000D+00      0.928D-02       -75.92666117     82.050036   -0.28803   -0.26626    0.00228    1      5.3     14.4     diag
    3      0.101D-01      0.209D-01       -76.37976320     93.569440    0.54668    0.49305   -0.00423    2      5.3     19.7     diag
    4      0.692D-02      0.527D-03       -76.38013679     93.187152    0.52644    0.47473   -0.00407    3      4.8     24.4     diag
    5      0.237D-03      0.119D-03       -76.38014953     93.235036    0.52517    0.47359   -0.00406    4      4.4     28.8     diag
    6      0.384D-04      0.278D-04       -76.38015035     93.246271    0.52684    0.47510   -0.00408    5      4.2     33.0     diag
    7      0.927D-05      0.907D-06       -76.38015035     93.246516    0.52679    0.47506   -0.00408    6      3.3     36.2     diag
    8      0.308D-06      0.758D-07       -76.38015035     93.246613    0.52681    0.47507   -0.00408    0      2.5     38.8     orth

 Final occupancy:   5

 !RKS STATE  1.1 Energy               -76.380150347583
 Nuclear energy                         9.17236909
 One-electron energy                 -122.94178367
 Two-electron energy                   46.62330660
 Density functional                    -9.23404236     PBEX=-8.90941179 PBEC=-0.32463057
 Virial quotient                       -1.00543725
 !RKS STATE  1.1 Dipole moment          0.52680581     0.47506675    -0.00407604
 Dipole moment /Debye                   1.33891911     1.20742015    -0.01035959

 Orbital energies:

         1.1          2.1          3.1          4.1          5.1          6.1          7.1
    -18.760095    -0.932480    -0.483893    -0.343895    -0.266348    -0.034262     0.016890


 HOMO      5.1    -0.266348 =      -7.2477eV
 LUMO      6.1    -0.034262 =      -0.9323eV
 LUMO-HOMO         0.232086 =       6.3154eV


 **********************************************************************************************************************************
 DATASETS  * FILE   NREC   LENGTH (MB)   RECORD NAMES
              1      19       32.92       500      610      700      900      950      970     1000      129      960     1100   
                                          VAR    BASINP    GEOM    SYMINP    ZMAT    AOBASIS   BASIS     P2S    ABASIS      S 
                                         1400     1410     1200     1210     1080     1600     1650     1700     1800   
                                           T        V       H0       H01     AOSYM     SMH    MOLCAS    OPER     GRID   

              2       7       15.57       700     1000      520     1800     2101     2201     2301   
                                         GEOM     BASIS   MCVARS    GRID      RKS      RKS      RKS  

 PROGRAMS   *        TOTAL   RKS-SCF       INT   RKS-SCF       INT   RKS-SCF       INT
 CPU TIMES  *       142.53     39.14      0.10     48.48      0.11     54.18      0.33
 REAL TIME  *       146.13 SEC
 DISK USED  *        53.15 MB (local),      212.61 MB (total)
 SF USED    *         0.92 MB
 GA USED    *         2.68 MB       (max)       2.68 MB       (current)
 **********************************************************************************************************************************
 SETTING EB_PBE         =       -76.38015035  AU                              
 SETTING E_AB_INT       =        -0.00038706  AU                              

 *** results in hartree
 E_AB_INT         =        -0.00038706 AU
 Molecular orbitals read from record     2301.2  Type=RKS/CANONICAL (state 1.1)
 Occupation numbers read from record     2301.2  Type=RKS/RHF (state 1.1)
 Orbital energies read from record       2301.2  Type=RKS/CANONICAL (state 1.1)
 Redundancy group numbers read from rec  2301.2  Type=RKS/RHF (state 1.1)

 RPBE/aug-cc-pVTZ energy=    -76.380150347583

         RKS-SCF         RKS-SCF         RKS-SCF
    -76.38015035   -115.63020050   -192.01073791
 **********************************************************************************************************************************
 Molpro calculation terminated
