 vasp.6.1.2 22Jul20 (build Jan  6 2021 09:55:43) gamma-only                      
 executed on             LinuxPGI date 2021.03.01  07:45:40
 running on   32 total cores
 distrk:  each k-point on   32 cores,    1 groups
 distr:  one band on NCORE=   8 cores,    4 groups


--------------------------------------------------------------------------------------------------------


 INCAR:
 POTCAR:    PAW_PBE H 15Jun2001                   
 POTCAR:    PAW_PBE C 08Apr2002                   
 POTCAR:    PAW_PBE O 08Apr2002                   
 POTCAR:    PAW_PBE H 15Jun2001                   
   VRHFIN =H: ultrasoft test                                                                        
   LEXCH  = PE                                                                                      
   EATOM  =    12.4884 eV,    0.9179 Ry                                                             
                                                                                                    
   TITEL  = PAW_PBE H 15Jun2001                                                                     
   LULTRA =        F    use ultrasoft PP ?                                                          
   IUNSCR =        0    unscreen: 0-lin 1-nonlin 2-no                                               
   RPACOR =    0.000    partial core radius                                                         
   POMASS =    1.000; ZVAL   =    1.000    mass and valenz                                          
   RCORE  =    1.100    outmost cutoff radius                                                       
   RWIGS  =    0.700; RWIGS  =    0.370    wigner-seitz radius (au A)                               
   ENMAX  =  250.000; ENMIN  =  200.000 eV                                                          
   RCLOC  =    0.701    cutoff for local pot                                                        
   LCOR   =        T    correct aug charges                                                         
   LPAW   =        T    paw PP                                                                      
   EAUG   =  400.000                                                                                
   RMAX   =    1.123    core radius for proj-oper                                                   
   RAUG   =    1.200    factor for augmentation sphere                                              
   RDEP   =    1.112    radius for radial grids                                                     
   RDEPT  =    0.926    core radius for aug-charge                                                  
                                                                                                    
   Atomic configuration                                                                             
    2 entries                                                                                       
     n  l   j            E        occ.                                                              
     1  0  0.50        -6.4927   1.0000                                                             
     2  1  0.50        -3.4015   0.0000                                                             
   Description                                                                                      
     l       E           TYP  RCUT    TYP  RCUT                                                     
     0     -6.4927494     23  1.100                                                                 
     0      6.8029130     23  1.100                                                                 
     1     -4.0817478     23  1.100                                                                 
  local pseudopotential read in
  atomic valenz-charges read in
  non local Contribution for L=            0  read in
    real space projection operators read in
  non local Contribution for L=            0  read in
    real space projection operators read in
  non local Contribution for L=            1  read in
    real space projection operators read in
    PAW grid and wavefunctions read in
 
   number of l-projection  operators is LMAX  =            3
   number of lm-projection operators is LMMAX =            5
 
 POTCAR:    PAW_PBE C 08Apr2002                   
   VRHFIN =C: s2p2                                                                                  
   LEXCH  = PE                                                                                      
   EATOM  =   147.1560 eV,   10.8157 Ry                                                             
                                                                                                    
   TITEL  = PAW_PBE C 08Apr2002                                                                     
   LULTRA =        F    use ultrasoft PP ?                                                          
   IUNSCR =        1    unscreen: 0-lin 1-nonlin 2-no                                               
   RPACOR =    1.200    partial core radius                                                         
   POMASS =   12.011; ZVAL   =    4.000    mass and valenz                                          
   RCORE  =    1.500    outmost cutoff radius                                                       
   RWIGS  =    1.630; RWIGS  =    0.863    wigner-seitz radius (au A)                               
   ENMAX  =  400.000; ENMIN  =  300.000 eV                                                          
   ICORE  =        2    local potential                                                             
   LCOR   =        T    correct aug charges                                                         
   LPAW   =        T    paw PP                                                                      
   EAUG   =  644.873                                                                                
   DEXC   =    0.000                                                                                
   RMAX   =    1.529    core radius for proj-oper                                                   
   RAUG   =    1.300    factor for augmentation sphere                                              
   RDEP   =    1.501    radius for radial grids                                                     
   RDEPT  =    1.300    core radius for aug-charge                                                  
                                                                                                    
   Atomic configuration                                                                             
    4 entries                                                                                       
     n  l   j            E        occ.                                                              
     1  0  0.50      -273.3789   2.0000                                                             
     2  0  0.50       -13.7508   2.0000                                                             
     2  1  0.50        -5.2854   2.0000                                                             
     3  2  1.50        -5.4423   0.0000                                                             
   Description                                                                                      
     l       E           TYP  RCUT    TYP  RCUT                                                     
     0    -13.7508458     23  1.200                                                                 
     0     -8.2022199     23  1.200                                                                 
     1     -5.2854383     23  1.500                                                                 
     1     34.0145650     23  1.500                                                                 
     2     -5.4423304      7  1.500                                                                 
  local pseudopotential read in
  partial core-charges read in
  partial kinetic energy density read in
  atomic valenz-charges read in
  non local Contribution for L=            0  read in
    real space projection operators read in
  non local Contribution for L=            0  read in
    real space projection operators read in
  non local Contribution for L=            1  read in
    real space projection operators read in
  non local Contribution for L=            1  read in
    real space projection operators read in
    PAW grid and wavefunctions read in
 
   number of l-projection  operators is LMAX  =            4
   number of lm-projection operators is LMMAX =            8
 
 POTCAR:    PAW_PBE O 08Apr2002                   
   VRHFIN =O: s2p4                                                                                  
   LEXCH  = PE                                                                                      
   EATOM  =   432.3788 eV,   31.7789 Ry                                                             
                                                                                                    
   TITEL  = PAW_PBE O 08Apr2002                                                                     
   LULTRA =        F    use ultrasoft PP ?                                                          
   IUNSCR =        1    unscreen: 0-lin 1-nonlin 2-no                                               
   RPACOR =    1.200    partial core radius                                                         
   POMASS =   16.000; ZVAL   =    6.000    mass and valenz                                          
   RCORE  =    1.520    outmost cutoff radius                                                       
   RWIGS  =    1.550; RWIGS  =    0.820    wigner-seitz radius (au A)                               
   ENMAX  =  400.000; ENMIN  =  300.000 eV                                                          
   ICORE  =        2    local potential                                                             
   LCOR   =        T    correct aug charges                                                         
   LPAW   =        T    paw PP                                                                      
   EAUG   =  605.392                                                                                
   DEXC   =    0.000                                                                                
   RMAX   =    1.553    core radius for proj-oper                                                   
   RAUG   =    1.300    factor for augmentation sphere                                              
   RDEP   =    1.550    radius for radial grids                                                     
   RDEPT  =    1.329    core radius for aug-charge                                                  
                                                                                                    
   Atomic configuration                                                                             
    4 entries                                                                                       
     n  l   j            E        occ.                                                              
     1  0  0.50      -514.6923   2.0000                                                             
     2  0  0.50       -23.9615   2.0000                                                             
     2  1  0.50        -9.0305   4.0000                                                             
     3  2  1.50        -9.5241   0.0000                                                             
   Description                                                                                      
     l       E           TYP  RCUT    TYP  RCUT                                                     
     0    -23.9615318     23  1.200                                                                 
     0     -9.5240782     23  1.200                                                                 
     1     -9.0304911     23  1.520                                                                 
     1      8.1634956     23  1.520                                                                 
     2     -9.5240782      7  1.500                                                                 
  local pseudopotential read in
  partial core-charges read in
  partial kinetic energy density read in
  kinetic energy density of atom read in
  atomic valenz-charges read in
  non local Contribution for L=            0  read in
    real space projection operators read in
  non local Contribution for L=            0  read in
    real space projection operators read in
  non local Contribution for L=            1  read in
    real space projection operators read in
  non local Contribution for L=            1  read in
    real space projection operators read in
    PAW grid and wavefunctions read in
 
   number of l-projection  operators is LMAX  =            4
   number of lm-projection operators is LMMAX =            8
 
  PAW_PBE H 15Jun2001                   :
 energy of atom  1       EATOM=  -12.4884
 kinetic energy error for atom=    0.0000 (will be added to EATOM!!)
  PAW_PBE C 08Apr2002                   :
 energy of atom  2       EATOM= -147.1560
 kinetic energy error for atom=    0.0002 (will be added to EATOM!!)
  PAW_PBE O 08Apr2002                   :
 energy of atom  3       EATOM= -432.3788
 kinetic energy error for atom=    0.0005 (will be added to EATOM!!)
 
 
 POSCAR:  H  C  O
  positions in cartesian coordinates
  No initial velocities read in
 exchange correlation table for  LEXCH =        8
   RHO(1)=    0.500       N(1)  =     2000
   RHO(2)=  100.500       N(2)  =     4000
 


--------------------------------------------------------------------------------------------------------


 ion  position               nearest neighbor table
   1  0.975  0.958  0.015-   7 1.09
   2  0.025  0.958  0.015-   7 1.09
   3  0.000  0.000  0.000-   7 1.09
   4  0.000  0.958  0.971-   7 1.09
   5  0.989  0.145  0.981-   8 0.96
   6  0.011  0.146  0.018-   8 0.96
   7  0.000  0.969  0.000-   4 1.09   2 1.09   1 1.09   3 1.09
   8  0.000  0.129  0.000-   6 0.96   5 0.96
 
  LATTYP: Found a simple cubic cell.
 ALAT       =    35.0000000000
  
  Lattice vectors:
  
 A1 = (  35.0000000000,   0.0000000000,   0.0000000000)
 A2 = (   0.0000000000,  35.0000000000,   0.0000000000)
 A3 = (   0.0000000000,   0.0000000000,  35.0000000000)


Analysis of symmetry for initial positions (statically):
=====================================================================
 Subroutine PRICEL returns:
 Original cell was already a primitive cell.
 

 Routine SETGRP: Setting up the symmetry group for a 
 simple cubic supercell.


 Subroutine GETGRP returns: Found  1 space group operations
 (whereof  1 operations were pure point group operations)
 out of a pool of 48 trial point group operations.


The static configuration has the point symmetry C_1 .


Analysis of symmetry for dynamics (positions and initial velocities):
=====================================================================
 Subroutine PRICEL returns:
 Original cell was already a primitive cell.
 

 Routine SETGRP: Setting up the symmetry group for a 
 simple cubic supercell.


 Subroutine GETGRP returns: Found  1 space group operations
 (whereof  1 operations were pure point group operations)
 out of a pool of 48 trial point group operations.


The dynamic configuration has the point symmetry C_1 .


 Subroutine INISYM returns: Found  1 space group operations
 (whereof  1 operations are pure point group operations),
 and found     1 'primitive' translations


----------------------------------------------------------------------------------------

                                     Primitive cell                                     

  volume of cell :   42875.0000

  direct lattice vectors                    reciprocal lattice vectors
    35.000000000  0.000000000  0.000000000     0.028571429  0.000000000  0.000000000
     0.000000000 35.000000000  0.000000000     0.000000000  0.028571429  0.000000000
     0.000000000  0.000000000 35.000000000     0.000000000  0.000000000  0.028571429

  length of vectors
    35.000000000 35.000000000 35.000000000     0.028571429  0.028571429  0.028571429

  position of ions in fractional coordinates (direct lattice)
     0.974528115  0.958404585  0.014706200
     0.025471885  0.958404585  0.014706200
     0.000000000  0.000000000  0.000000000
     0.000000000  0.958404585  0.970587600
     0.988854402  0.144620663  0.980695258
     0.011450048  0.146260005  0.017620613
     0.000000000  0.968803439  0.000000000
     0.000000000  0.128571429  0.000000000

  ion indices of the primitive-cell ions
   primitive index   ion index
                 1           1
                 2           2
                 3           3
                 4           4
                 5           5
                 6           6
                 7           7
                 8           8

----------------------------------------------------------------------------------------

 
 
 KPOINTS: automatic mesh                          

Automatic generation of k-mesh.
Space group operators:
 irot       det(A)        alpha          n_x          n_y          n_z        tau_x        tau_y        tau_z
    1     1.000000     0.000000     1.000000     0.000000     0.000000     0.000000     0.000000     0.000000
 
 Subroutine IBZKPT returns following result:
 ===========================================
 
 Found      1 irreducible k-points:
 
 Following reciprocal coordinates:
            Coordinates               Weight
  0.000000  0.000000  0.000000      1.000000
 
 Following cartesian coordinates:
            Coordinates               Weight
  0.000000  0.000000  0.000000      1.000000
 


--------------------------------------------------------------------------------------------------------




 Dimension of arrays:
   k-points           NKPTS =      1   k-points in BZ     NKDIM =      1   number of bands    NBANDS=     16
   number of dos      NEDOS =    301   number of ions     NIONS =      8
   non local maximal  LDIM  =      4   non local SUM 2l+1 LMDIM =      8
   total plane-waves  NPLWV = ******
   max r-space proj   IRMAX =      1   max aug-charges    IRDMAX=  33660
   dimension x,y,z NGX =   480 NGY =  480 NGZ =  480
   dimension x,y,z NGXF=   960 NGYF=  960 NGZF=  960
   support grid    NGXF=   960 NGYF=  960 NGZF=  960
   ions per type =               6   1   1
   NGX,Y,Z   is equivalent  to a cutoff of  22.80, 22.80, 22.80 a.u.
   NGXF,Y,Z  is equivalent  to a cutoff of  45.60, 45.60, 45.60 a.u.

 SYSTEM =  C                                       
 POSCAR =   H  C  O                                

 Startparameter for this run:
   NWRITE =      2    write-flag & timer
   PREC   = acc       normal or accurate (medium, high low for compatibility)
   ISTART =      0    job   : 0-new  1-cont  2-samecut
   ICHARG =      2    charge: 1-file 2-atom 10-const
   ISPIN  =      1    spin polarized calculation?
   LNONCOLLINEAR =      F non collinear calculations
   LSORBIT =      F    spin-orbit coupling
   INIWAV =      1    electr: 0-lowe 1-rand  2-diag
   LASPH  =      T    aspherical Exc in radial PAW
   METAGGA=      F    non-selfconsistent MetaGGA calc.

 Electronic Relaxation 1
   ENCUT  = 1600.0 eV 117.60 Ry   10.84 a.u. 114.15114.15114.15*2*pi/ulx,y,z
   ENINI  = 1600.0     initial cutoff
   ENAUG  =  644.9 eV  augmentation charge cutoff
   NELM   =     60;   NELMIN=  2; NELMDL= -5     # of ELM steps 
   EDIFF  = 0.1E-06   stopping-criterion for ELM
   LREAL  =      F    real-space projection
   NLSPLINE    = F    spline interpolate recip. space projectors
   LCOMPAT=      F    compatible to vasp.4.4
   GGA_COMPAT  = T    GGA compatible to vasp.4.4-vasp.4.6
   LMAXPAW     = -100 max onsite density
   LMAXMIX     =    2 max onsite mixed and CHGCAR
   VOSKOWN=      0    Vosko Wilk Nusair interpolation
   ROPT   =    0.00000   0.00000   0.00000
 Ionic relaxation
   EDIFFG = 0.1E-05   stopping-criterion for IOM
   NSW    =      0    number of steps for IOM
   NBLOCK =      1;   KBLOCK =      1    inner block; outer block 
   IBRION =     -1    ionic relax: 0-MD 1-quasi-New 2-CG
   NFREE  =      0    steps in history (QN), initial steepest desc. (CG)
   ISIF   =      2    stress and relaxation
   IWAVPR =     10    prediction:  0-non 1-charg 2-wave 3-comb
   ISYM   =      2    0-nonsym 1-usesym 2-fastsym
   LCORR  =      T    Harris-Foulkes like correction to forces

   POTIM  = 0.5000    time-step for ionic-motion
   TEIN   =    0.0    initial temperature
   TEBEG  =    0.0;   TEEND  =   0.0 temperature during run
   SMASS  =  -3.00    Nose mass-parameter (am)
   estimated Nose-frequenzy (Omega)   =  0.10E-29 period in steps = 0.13E+47 mass=  -0.280E-25a.u.
   SCALEE = 1.0000    scale energy and forces
   NPACO  =    256;   APACO  = 16.0  distance and # of slots for P.C.
   PSTRESS=    0.0 pullay stress

  Mass of Ions in am
   POMASS =   1.00 12.01 16.00
  Ionic Valenz
   ZVAL   =   1.00  4.00  6.00
  Atomic Wigner-Seitz radii
   RWIGS  =  -1.00 -1.00 -1.00
  virtual crystal weights 
   VCA    =   1.00  1.00  1.00
   NELECT =      16.0000    total number of electrons
   NUPDOWN=      -1.0000    fix difference up-down

 DOS related values:
   EMIN   =  10.00;   EMAX   =-10.00  energy-range for DOS
   EFERMI =   0.00
   ISMEAR =     0;   SIGMA  =   0.01  broadening in eV -4-tet -1-fermi 0-gaus

 Electronic relaxation 2 (details)
   IALGO  =     38    algorithm
   LDIAG  =      T    sub-space diagonalisation (order eigenvalues)
   LSUBROT=      F    optimize rotation matrix (better conditioning)
   TURBO    =      0    0=normal 1=particle mesh
   IRESTART =      0    0=no restart 2=restart with 2 vectors
   NREBOOT  =      0    no. of reboots
   NMIN     =      0    reboot dimension
   EREF     =   0.00    reference energy to select bands
   IMIX   =      4    mixing-type and parameters
     AMIX     =   0.40;   BMIX     =  1.00
     AMIX_MAG =   1.60;   BMIX_MAG =  1.00
     AMIN     =   0.10
     WC   =   100.;   INIMIX=   1;  MIXPRE=   1;  MAXMIX= -45

 Intra band minimization:
   WEIMIN = 0.0000     energy-eigenvalue tresh-hold
   EBREAK =  0.16E-08  absolut break condition
   DEPER  =   0.30     relativ break condition  

   TIME   =   0.40     timestep for ELM

  volume/ion in A,a.u.               =    5359.38     36166.85
  Fermi-wavevector in a.u.,A,eV,Ry     =   0.117864  0.222730  0.189010  0.013892
  Thomas-Fermi vector in A             =   0.732055
 
 Write flags
   LWAVE        =      T    write WAVECAR
   LDOWNSAMPLE  =      F    k-point downsampling of WAVECAR
   LCHARG       =      T    write CHGCAR
   LVTOT        =      F    write LOCPOT, total local potential
   LVHAR        =      F    write LOCPOT, Hartree potential only
   LELF         =      F    write electronic localiz. function (ELF)
   LORBIT       =      0    0 simple, 1 ext, 2 COOP (PROOUT), +10 PAW based schemes


 Dipole corrections
   LMONO  =      F    monopole corrections only (constant potential shift)
   LDIPOL =      F    correct potential (dipole corrections)
   IDIPOL =      4    1-x, 2-y, 3-z, 4-all directions 
   EPSILON=  1.0000000 bulk dielectric constant

 Exchange correlation treatment:
   GGA     =    --    GGA type
   LEXCH   =     8    internal setting for exchange type
   VOSKOWN=      0    Vosko Wilk Nusair interpolation
   LHFCALC =     F    Hartree Fock is set to
   LHFONE  =     F    Hartree Fock one center treatment
   AEXX    =    0.0000 exact exchange contribution

 Linear response parameters
   LEPSILON=     F    determine dielectric tensor
   LRPA    =     F    only Hartree local field effects (RPA)
   LNABLA  =     F    use nabla operator in PAW spheres
   LVEL    =     F    velocity operator in full k-point grid
   LINTERFAST=   F  fast interpolation
   KINTER  =     0    interpolate to denser k-point grid
   CSHIFT  =0.1000    complex shift for real part using Kramers Kronig
   OMEGAMAX=  -1.0    maximum frequency
   DEG_THRESHOLD= 0.2000000E-02 threshold for treating states as degnerate
   RTIME   =   -0.100 relaxation time in fs
  (WPLASMAI=    0.000 imaginary part of plasma frequency in eV, 0.658/RTIME)
   DFIELD  = 0.0000000 0.0000000 0.0000000 field for delta impulse in time
 
 Orbital magnetization related:
   ORBITALMAG=     F  switch on orbital magnetization
   LCHIMAG   =     F  perturbation theory with respect to B field
   DQ        =  0.001000  dq finite difference perturbation B field
   LLRAUG    =     F  two centre corrections for induced B field



--------------------------------------------------------------------------------------------------------


 Static calculation
 charge density and potential will be updated during run
 non-spin polarized calculation
 Variant of blocked Davidson
 Davidson routine will perform the subspace rotation
 perform sub-space diagonalisation
    after iterative eigenvector-optimisation
 modified Broyden-mixing scheme, WC =      100.0
 initial mixing is a Kerker type mixing with AMIX =  0.4000 and BMIX =      1.0000
 Hartree-type preconditioning will be used
 using additional bands             8
 reciprocal scheme for non local part
 use partial core corrections
 calculate Harris-corrections to forces 
   (improved forces if not selfconsistent)
 use gradient corrections 
 use of overlap-Matrix (Vanderbilt PP)
 Gauss-broadening in eV      SIGMA  =   0.01


--------------------------------------------------------------------------------------------------------


  energy-cutoff  :     1600.00
  volume of cell :    42875.00
      direct lattice vectors                 reciprocal lattice vectors
    35.000000000  0.000000000  0.000000000     0.028571429  0.000000000  0.000000000
     0.000000000 35.000000000  0.000000000     0.000000000  0.028571429  0.000000000
     0.000000000  0.000000000 35.000000000     0.000000000  0.000000000  0.028571429

  length of vectors
    35.000000000 35.000000000 35.000000000     0.028571429  0.028571429  0.028571429


 
 k-points in units of 2pi/SCALE and weight: automatic mesh                          
   0.00000000  0.00000000  0.00000000       1.000
 
 k-points in reciprocal lattice and weights: automatic mesh                          
   0.00000000  0.00000000  0.00000000       1.000
 
 position of ions in fractional coordinates (direct lattice) 
   0.97452811  0.95840459  0.01470620
   0.02547189  0.95840459  0.01470620
   0.00000000  0.00000000  0.00000000
   0.00000000  0.95840459  0.97058760
   0.98885440  0.14462066  0.98069526
   0.01145005  0.14626000  0.01762061
   0.00000000  0.96880344  0.00000000
   0.00000000  0.12857143  0.00000000
 
 position of ions in cartesian coordinates  (Angst):
  34.10848401 33.54416049  0.51471700
   0.89151599 33.54416049  0.51471700
   0.00000000  0.00000000  0.00000000
   0.00000000 33.54416049 33.97056601
  34.60990407  5.06172320 34.32433404
   0.40075167  5.11910016  0.61672147
   0.00000000 33.90812037  0.00000000
   0.00000000  4.50000000  0.00000000
 


--------------------------------------------------------------------------------------------------------


 use parallel FFT for orbitals z direction half grid
 k-point   1 :   0.0000 0.0000 0.0000  plane waves: 3115599

 maximum and minimum number of plane-waves per node :    389462   389421

 maximum number of plane-waves:   3115599
 maximum index in each direction: 
   IXMAX=  114   IYMAX=  114   IZMAX=  114
   IXMIN= -114   IYMIN= -114   IZMIN=    0


 parallel 3D FFT for wavefunctions:
    minimum data exchange during FFTs selected (reduces bandwidth)
 parallel 3D FFT for charge:
    minimum data exchange during FFTs selected (reduces bandwidth)


 total amount of memory used by VASP MPI-rank0  3720423. kBytes
=======================================================================

   base      :      30000. kBytes
   nonl-proj :     124615. kBytes
   fftplans  :    1215227. kBytes
   grid      :    2325657. kBytes
   one-center:          1. kBytes
   wavefun   :      24923. kBytes
 
     INWAV:  cpu time    0.0000: real time    0.0000
 Broyden mixing: mesh for mixing (old mesh)
   NGX =229   NGY =229   NGZ =229
  (NGX  =960   NGY  =960   NGZ  =960)
  gives a total of ****** points

 initial charge density was supplied:
 charge density of overlapping atoms calculated
 number of electron      16.0000000 magnetization 
 keeping initial charge density in first step


--------------------------------------------------------------------------------------------------------


 Maximum index for augmentation-charges          1232 (set IRDMAX)


--------------------------------------------------------------------------------------------------------


 First call to EWALD:  gamma=   0.051
 Maximum number of real-space cells 3x 3x 3
 Maximum number of reciprocal cells 3x 3x 3

    FEWALD:  cpu time    0.0018: real time    0.0018


--------------------------------------- Iteration      1(   1)  ---------------------------------------


    POTLOK:  cpu time   22.6004: real time   22.6319
    SETDIJ:  cpu time    0.0502: real time    0.0509
     EDDAV:  cpu time   16.1793: real time   20.0809
       DOS:  cpu time    0.0581: real time    0.0581
    --------------------------------------------
      LOOP:  cpu time   38.8880: real time   42.8217

 eigenvalue-minimisations  :    48
 total energy-change (2. order) : 0.1168716E+03  (-0.3037405E+03)
 number of electron      16.0000000 magnetization 
 augmentation part       16.0000000 magnetization 

 Free energy of the ion-electron system (eV)
  ---------------------------------------------------
  alpha Z        PSCENC =         0.02176103
  Ewald energy   TEWEN  =       461.83392156
  -Hartree energ DENC   =      -932.34161885
  -exchange      EXHF   =         0.00000000
  -V(xc)+E(xc)   XCENC  =        54.26198841
  PAW double counting   =       467.87568789     -470.29703107
  entropy T*S    EENTRO =        -0.00000000
  eigenvalues    EBANDS =      -118.94748964
  atomic energy  EATOM  =       654.46437027
  Solvation  Ediel_sol  =         0.00000000
  ---------------------------------------------------
  free energy    TOTEN  =       116.87158960 eV

  energy without entropy =      116.87158960  energy(sigma->0) =      116.87158960


--------------------------------------------------------------------------------------------------------




--------------------------------------- Iteration      1(   2)  ---------------------------------------


     EDDAV:  cpu time   18.2916: real time   18.3233
       DOS:  cpu time    0.0425: real time    0.0426
    --------------------------------------------
      LOOP:  cpu time   18.3341: real time   18.3658

 eigenvalue-minimisations  :    56
 total energy-change (2. order) :-0.7970203E+02  (-0.7861638E+02)
 number of electron      16.0000000 magnetization 
 augmentation part       16.0000000 magnetization 

 Free energy of the ion-electron system (eV)
  ---------------------------------------------------
  alpha Z        PSCENC =         0.02176103
  Ewald energy   TEWEN  =       461.83392156
  -Hartree energ DENC   =      -932.34161885
  -exchange      EXHF   =         0.00000000
  -V(xc)+E(xc)   XCENC  =        54.26198841
  PAW double counting   =       467.87568789     -470.29703107
  entropy T*S    EENTRO =        -0.00000000
  eigenvalues    EBANDS =      -198.64952336
  atomic energy  EATOM  =       654.46437027
  Solvation  Ediel_sol  =         0.00000000
  ---------------------------------------------------
  free energy    TOTEN  =        37.16955587 eV

  energy without entropy =       37.16955587  energy(sigma->0) =       37.16955587


--------------------------------------------------------------------------------------------------------




--------------------------------------- Iteration      1(   3)  ---------------------------------------


     EDDAV:  cpu time   18.1404: real time   18.1646
       DOS:  cpu time    0.0652: real time    0.0652
    --------------------------------------------
      LOOP:  cpu time   18.2056: real time   18.2298

 eigenvalue-minimisations  :    56
 total energy-change (2. order) :-0.6986258E+02  (-0.6580907E+02)
 number of electron      16.0000000 magnetization 
 augmentation part       16.0000000 magnetization 

 Free energy of the ion-electron system (eV)
  ---------------------------------------------------
  alpha Z        PSCENC =         0.02176103
  Ewald energy   TEWEN  =       461.83392156
  -Hartree energ DENC   =      -932.34161885
  -exchange      EXHF   =         0.00000000
  -V(xc)+E(xc)   XCENC  =        54.26198841
  PAW double counting   =       467.87568789     -470.29703107
  entropy T*S    EENTRO =        -0.00000000
  eigenvalues    EBANDS =      -268.51210589
  atomic energy  EATOM  =       654.46437027
  Solvation  Ediel_sol  =         0.00000000
  ---------------------------------------------------
  free energy    TOTEN  =       -32.69302665 eV

  energy without entropy =      -32.69302665  energy(sigma->0) =      -32.69302665


--------------------------------------------------------------------------------------------------------




--------------------------------------- Iteration      1(   4)  ---------------------------------------


     EDDAV:  cpu time   12.0628: real time   12.0784
       DOS:  cpu time    0.0315: real time    0.0315
    --------------------------------------------
      LOOP:  cpu time   12.0943: real time   12.1100

 eigenvalue-minimisations  :    32
 total energy-change (2. order) :-0.1112098E+02  (-0.1111612E+02)
 number of electron      16.0000000 magnetization 
 augmentation part       16.0000000 magnetization 

 Free energy of the ion-electron system (eV)
  ---------------------------------------------------
  alpha Z        PSCENC =         0.02176103
  Ewald energy   TEWEN  =       461.83392156
  -Hartree energ DENC   =      -932.34161885
  -exchange      EXHF   =         0.00000000
  -V(xc)+E(xc)   XCENC  =        54.26198841
  PAW double counting   =       467.87568789     -470.29703107
  entropy T*S    EENTRO =        -0.00000000
  eigenvalues    EBANDS =      -279.63308459
  atomic energy  EATOM  =       654.46437027
  Solvation  Ediel_sol  =         0.00000000
  ---------------------------------------------------
  free energy    TOTEN  =       -43.81400535 eV

  energy without entropy =      -43.81400535  energy(sigma->0) =      -43.81400535


--------------------------------------------------------------------------------------------------------




--------------------------------------- Iteration      1(   5)  ---------------------------------------


     EDDAV:  cpu time   16.1305: real time   16.1517
       DOS:  cpu time    0.0620: real time    0.0621
    CHARGE:  cpu time    3.1900: real time    3.1938
    MIXING:  cpu time    0.5379: real time    0.5385
    --------------------------------------------
      LOOP:  cpu time   19.9204: real time   19.9460

 eigenvalue-minimisations  :    48
 total energy-change (2. order) :-0.1989962E+00  (-0.1988664E+00)
 number of electron      16.0000000 magnetization 
 augmentation part        1.0698120 magnetization 

 Broyden mixing:
  rms(total) = 0.11917E+01    rms(broyden)= 0.11917E+01
  rms(prec ) = 0.12360E+01
  weight for this iteration     100.00

 Free energy of the ion-electron system (eV)
  ---------------------------------------------------
  alpha Z        PSCENC =         0.02176103
  Ewald energy   TEWEN  =       461.83392156
  -Hartree energ DENC   =      -932.34161885
  -exchange      EXHF   =         0.00000000
  -V(xc)+E(xc)   XCENC  =        54.26198841
  PAW double counting   =       467.87568789     -470.29703107
  entropy T*S    EENTRO =        -0.00000000
  eigenvalues    EBANDS =      -279.83208080
  atomic energy  EATOM  =       654.46437027
  Solvation  Ediel_sol  =         0.00000000
  ---------------------------------------------------
  free energy    TOTEN  =       -44.01300157 eV

  energy without entropy =      -44.01300157  energy(sigma->0) =      -44.01300157


--------------------------------------------------------------------------------------------------------




--------------------------------------- Iteration      1(   6)  ---------------------------------------


    POTLOK:  cpu time   22.3609: real time   22.3955
    SETDIJ:  cpu time    0.0554: real time    0.0554
     EDDAV:  cpu time   14.2374: real time   14.2617
       DOS:  cpu time    0.0053: real time    0.0053
    CHARGE:  cpu time    3.1393: real time    3.1455
    MIXING:  cpu time    0.5181: real time    0.5300
    --------------------------------------------
      LOOP:  cpu time   40.3163: real time   40.3934

 eigenvalue-minimisations  :    40
 total energy-change (2. order) : 0.4922316E+01  (-0.1423466E+01)
 number of electron      16.0000000 magnetization 
 augmentation part        0.9092323 magnetization 

 Broyden mixing:
  rms(total) = 0.53122E+00    rms(broyden)= 0.53122E+00
  rms(prec ) = 0.54471E+00
  weight for this iteration     100.00

 eigenvalues of (default mixing * dielectric matrix)
  average eigenvalue GAMMA=   1.0847
  1.0847

 Free energy of the ion-electron system (eV)
  ---------------------------------------------------
  alpha Z        PSCENC =         0.02176103
  Ewald energy   TEWEN  =       461.83392156
  -Hartree energ DENC   =      -976.90336670
  -exchange      EXHF   =         0.00000000
  -V(xc)+E(xc)   XCENC  =        56.82170754
  PAW double counting   =       684.36058802     -687.33066332
  entropy T*S    EENTRO =        -0.00000000
  eigenvalues    EBANDS =      -232.35900401
  atomic energy  EATOM  =       654.46437027
  Solvation  Ediel_sol  =         0.00000000
  ---------------------------------------------------
  free energy    TOTEN  =       -39.09068561 eV

  energy without entropy =      -39.09068561  energy(sigma->0) =      -39.09068561


--------------------------------------------------------------------------------------------------------




--------------------------------------- Iteration      1(   7)  ---------------------------------------


    POTLOK:  cpu time   22.3077: real time   22.3332
    SETDIJ:  cpu time    0.0513: real time    0.0513
     EDDAV:  cpu time   14.1759: real time   14.1947
       DOS:  cpu time    0.0049: real time    0.0049
    CHARGE:  cpu time    3.1985: real time    3.2023
    MIXING:  cpu time    0.5069: real time    0.5075
    --------------------------------------------
      LOOP:  cpu time   40.2452: real time   40.2940

 eigenvalue-minimisations  :    40
 total energy-change (2. order) : 0.5074440E+00  (-0.2000068E+00)
 number of electron      16.0000000 magnetization 
 augmentation part        0.8907722 magnetization 

 Broyden mixing:
  rms(total) = 0.33660E+00    rms(broyden)= 0.33660E+00
  rms(prec ) = 0.34292E+00
  weight for this iteration     100.00

 eigenvalues of (default mixing * dielectric matrix)
  average eigenvalue GAMMA=   1.5439
  1.2433  1.8445

 Free energy of the ion-electron system (eV)
  ---------------------------------------------------
  alpha Z        PSCENC =         0.02176103
  Ewald energy   TEWEN  =       461.83392156
  -Hartree energ DENC   =      -991.51372400
  -exchange      EXHF   =         0.00000000
  -V(xc)+E(xc)   XCENC  =        57.76455701
  PAW double counting   =       842.30698417     -845.27507147
  entropy T*S    EENTRO =        -0.00000000
  eigenvalues    EBANDS =      -218.18604020
  atomic energy  EATOM  =       654.46437027
  Solvation  Ediel_sol  =         0.00000000
  ---------------------------------------------------
  free energy    TOTEN  =       -38.58324164 eV

  energy without entropy =      -38.58324164  energy(sigma->0) =      -38.58324164


--------------------------------------------------------------------------------------------------------




--------------------------------------- Iteration      1(   8)  ---------------------------------------


    POTLOK:  cpu time   22.3413: real time   22.3751
    SETDIJ:  cpu time    0.0508: real time    0.0509
     EDDAV:  cpu time   16.2335: real time   16.2596
       DOS:  cpu time    0.0050: real time    0.0050
    CHARGE:  cpu time    2.9686: real time    2.9722
    MIXING:  cpu time    0.6779: real time    0.6786
    --------------------------------------------
      LOOP:  cpu time   42.2772: real time   42.3413

 eigenvalue-minimisations  :    48
 total energy-change (2. order) : 0.2635323E+00  (-0.1828119E-01)
 number of electron      16.0000000 magnetization 
 augmentation part        0.8915871 magnetization 

 Broyden mixing:
  rms(total) = 0.62126E-01    rms(broyden)= 0.62126E-01
  rms(prec ) = 0.67457E-01
  weight for this iteration     100.00

 eigenvalues of (default mixing * dielectric matrix)
  average eigenvalue GAMMA=   1.4738
  2.3021  1.0597  1.0597

 Free energy of the ion-electron system (eV)
  ---------------------------------------------------
  alpha Z        PSCENC =         0.02176103
  Ewald energy   TEWEN  =       461.83392156
  -Hartree energ DENC   =     -1000.56589894
  -exchange      EXHF   =         0.00000000
  -V(xc)+E(xc)   XCENC  =        58.49123280
  PAW double counting   =       994.05428639     -996.96662008
  entropy T*S    EENTRO =        -0.00000000
  eigenvalues    EBANDS =      -209.65276234
  atomic energy  EATOM  =       654.46437027
  Solvation  Ediel_sol  =         0.00000000
  ---------------------------------------------------
  free energy    TOTEN  =       -38.31970931 eV

  energy without entropy =      -38.31970931  energy(sigma->0) =      -38.31970931


--------------------------------------------------------------------------------------------------------




--------------------------------------- Iteration      1(   9)  ---------------------------------------


    POTLOK:  cpu time   22.2599: real time   22.2984
    SETDIJ:  cpu time    0.1489: real time    0.1490
     EDDAV:  cpu time   16.3646: real time   16.3864
       DOS:  cpu time    0.0099: real time    0.0099
    CHARGE:  cpu time    3.0797: real time    3.0887
    MIXING:  cpu time    0.5980: real time    0.5988
    --------------------------------------------
      LOOP:  cpu time   42.4610: real time   42.5312

 eigenvalue-minimisations  :    48
 total energy-change (2. order) : 0.3554714E-01  (-0.3267948E-02)
 number of electron      16.0000000 magnetization 
 augmentation part        0.8860546 magnetization 

 Broyden mixing:
  rms(total) = 0.26352E-01    rms(broyden)= 0.26352E-01
  rms(prec ) = 0.30849E-01
  weight for this iteration     100.00

 eigenvalues of (default mixing * dielectric matrix)
  average eigenvalue GAMMA=   1.7091
  2.3524  2.3524  1.0657  1.0657

 Free energy of the ion-electron system (eV)
  ---------------------------------------------------
  alpha Z        PSCENC =         0.02176103
  Ewald energy   TEWEN  =       461.83392156
  -Hartree energ DENC   =     -1005.21680299
  -exchange      EXHF   =         0.00000000
  -V(xc)+E(xc)   XCENC  =        58.78671896
  PAW double counting   =      1034.07239042    -1036.98401800
  entropy T*S    EENTRO =        -0.00000000
  eigenvalues    EBANDS =      -205.26250342
  atomic energy  EATOM  =       654.46437027
  Solvation  Ediel_sol  =         0.00000000
  ---------------------------------------------------
  free energy    TOTEN  =       -38.28416217 eV

  energy without entropy =      -38.28416217  energy(sigma->0) =      -38.28416217


--------------------------------------------------------------------------------------------------------




--------------------------------------- Iteration      1(  10)  ---------------------------------------


    POTLOK:  cpu time   22.3378: real time   22.3673
    SETDIJ:  cpu time    0.0473: real time    0.0473
     EDDAV:  cpu time   12.1792: real time   12.1951
       DOS:  cpu time    0.0337: real time    0.0337
    CHARGE:  cpu time    3.1825: real time    3.1863
    MIXING:  cpu time    0.5881: real time    0.5888
    --------------------------------------------
      LOOP:  cpu time   38.3687: real time   38.4185

 eigenvalue-minimisations  :    32
 total energy-change (2. order) : 0.5673661E-02  (-0.9609840E-03)
 number of electron      16.0000000 magnetization 
 augmentation part        0.8853090 magnetization 

 Broyden mixing:
  rms(total) = 0.13399E-01    rms(broyden)= 0.13399E-01
  rms(prec ) = 0.16420E-01
  weight for this iteration     100.00

 eigenvalues of (default mixing * dielectric matrix)
  average eigenvalue GAMMA=   1.7461
  3.2247  2.4591  0.9994  0.9994  1.0478

 Free energy of the ion-electron system (eV)
  ---------------------------------------------------
  alpha Z        PSCENC =         0.02176103
  Ewald energy   TEWEN  =       461.83392156
  -Hartree energ DENC   =     -1007.74954841
  -exchange      EXHF   =         0.00000000
  -V(xc)+E(xc)   XCENC  =        58.85771727
  PAW double counting   =      1018.71526385    -1021.61378594
  entropy T*S    EENTRO =        -0.00000000
  eigenvalues    EBANDS =      -202.80818814
  atomic energy  EATOM  =       654.46437027
  Solvation  Ediel_sol  =         0.00000000
  ---------------------------------------------------
  free energy    TOTEN  =       -38.27848851 eV

  energy without entropy =      -38.27848851  energy(sigma->0) =      -38.27848851


--------------------------------------------------------------------------------------------------------




--------------------------------------- Iteration      1(  11)  ---------------------------------------


    POTLOK:  cpu time   22.3681: real time   22.4011
    SETDIJ:  cpu time    0.0698: real time    0.0699
     EDDAV:  cpu time   16.1050: real time   16.1326
       DOS:  cpu time    0.0062: real time    0.0062
    CHARGE:  cpu time    3.0210: real time    3.0247
    MIXING:  cpu time    0.6731: real time    0.6757
    --------------------------------------------
      LOOP:  cpu time   42.2432: real time   42.3100

 eigenvalue-minimisations  :    48
 total energy-change (2. order) : 0.2741067E-02  (-0.2399367E-03)
 number of electron      16.0000000 magnetization 
 augmentation part        0.8838028 magnetization 

 Broyden mixing:
  rms(total) = 0.80229E-02    rms(broyden)= 0.80229E-02
  rms(prec ) = 0.10299E-01
  weight for this iteration     100.00

 eigenvalues of (default mixing * dielectric matrix)
  average eigenvalue GAMMA=   1.7143
  3.0383  2.1012  2.1012  1.0431  1.0431  0.9588

 Free energy of the ion-electron system (eV)
  ---------------------------------------------------
  alpha Z        PSCENC =         0.02176103
  Ewald energy   TEWEN  =       461.83392156
  -Hartree energ DENC   =     -1009.29848861
  -exchange      EXHF   =         0.00000000
  -V(xc)+E(xc)   XCENC  =        58.91884861
  PAW double counting   =      1019.20350971    -1022.09852945
  entropy T*S    EENTRO =        -0.00000000
  eigenvalues    EBANDS =      -201.32114056
  atomic energy  EATOM  =       654.46437027
  Solvation  Ediel_sol  =         0.00000000
  ---------------------------------------------------
  free energy    TOTEN  =       -38.27574744 eV

  energy without entropy =      -38.27574744  energy(sigma->0) =      -38.27574744


--------------------------------------------------------------------------------------------------------




--------------------------------------- Iteration      1(  12)  ---------------------------------------


    POTLOK:  cpu time   22.3404: real time   22.3662
    SETDIJ:  cpu time    0.0921: real time    0.0921
     EDDAV:  cpu time   16.2071: real time   16.2284
       DOS:  cpu time    0.0089: real time    0.0089
    CHARGE:  cpu time    3.1433: real time    3.1470
    MIXING:  cpu time    0.6399: real time    0.6407
    --------------------------------------------
      LOOP:  cpu time   42.4317: real time   42.4834

 eigenvalue-minimisations  :    48
 total energy-change (2. order) :-0.1002135E-01  (-0.3082615E-03)
 number of electron      16.0000000 magnetization 
 augmentation part        0.8845640 magnetization 

 Broyden mixing:
  rms(total) = 0.89615E-02    rms(broyden)= 0.89615E-02
  rms(prec ) = 0.10024E-01
  weight for this iteration     100.00

 eigenvalues of (default mixing * dielectric matrix)
  average eigenvalue GAMMA=   2.0323
  4.8526  3.0045  2.3948  1.0474  1.0474  0.9398  0.9398

 Free energy of the ion-electron system (eV)
  ---------------------------------------------------
  alpha Z        PSCENC =         0.02176103
  Ewald energy   TEWEN  =       461.83392156
  -Hartree energ DENC   =     -1009.79435732
  -exchange      EXHF   =         0.00000000
  -V(xc)+E(xc)   XCENC  =        58.92042873
  PAW double counting   =      1022.15756555    -1025.04980834
  entropy T*S    EENTRO =        -0.00000000
  eigenvalues    EBANDS =      -200.83965027
  atomic energy  EATOM  =       654.46437027
  Solvation  Ediel_sol  =         0.00000000
  ---------------------------------------------------
  free energy    TOTEN  =       -38.28576879 eV

  energy without entropy =      -38.28576879  energy(sigma->0) =      -38.28576879


--------------------------------------------------------------------------------------------------------




--------------------------------------- Iteration      1(  13)  ---------------------------------------


    POTLOK:  cpu time   22.3958: real time   22.4223
    SETDIJ:  cpu time    0.0548: real time    0.0548
     EDDAV:  cpu time   14.1924: real time   14.2114
       DOS:  cpu time    0.0046: real time    0.0047
    CHARGE:  cpu time    3.1538: real time    3.1574
    MIXING:  cpu time    0.6743: real time    0.6752
    --------------------------------------------
      LOOP:  cpu time   40.4758: real time   40.5257

 eigenvalue-minimisations  :    40
 total energy-change (2. order) :-0.6082725E-02  (-0.1550454E-03)
 number of electron      16.0000000 magnetization 
 augmentation part        0.8840567 magnetization 

 Broyden mixing:
  rms(total) = 0.48185E-02    rms(broyden)= 0.48185E-02
  rms(prec ) = 0.52855E-02
  weight for this iteration     100.00

 eigenvalues of (default mixing * dielectric matrix)
  average eigenvalue GAMMA=   1.9792
  5.1332  3.1145  2.3919  1.0914  0.9568  0.9568  1.0946  1.0946

 Free energy of the ion-electron system (eV)
  ---------------------------------------------------
  alpha Z        PSCENC =         0.02176103
  Ewald energy   TEWEN  =       461.83392156
  -Hartree energ DENC   =     -1010.68532501
  -exchange      EXHF   =         0.00000000
  -V(xc)+E(xc)   XCENC  =        58.92964803
  PAW double counting   =      1019.22869288    -1022.12199598
  entropy T*S    EENTRO =        -0.00000000
  eigenvalues    EBANDS =      -199.96292430
  atomic energy  EATOM  =       654.46437027
  Solvation  Ediel_sol  =         0.00000000
  ---------------------------------------------------
  free energy    TOTEN  =       -38.29185151 eV

  energy without entropy =      -38.29185151  energy(sigma->0) =      -38.29185151


--------------------------------------------------------------------------------------------------------




--------------------------------------- Iteration      1(  14)  ---------------------------------------


    POTLOK:  cpu time   22.4246: real time   22.4505
    SETDIJ:  cpu time    0.0513: real time    0.0513
     EDDAV:  cpu time   18.2627: real time   18.2864
       DOS:  cpu time    0.0001: real time    0.0001
    CHARGE:  cpu time    3.1354: real time    3.1389
    MIXING:  cpu time    0.6579: real time    0.6588
    --------------------------------------------
      LOOP:  cpu time   44.5320: real time   44.5861

 eigenvalue-minimisations  :    56
 total energy-change (2. order) :-0.3157373E-02  (-0.6377591E-04)
 number of electron      16.0000000 magnetization 
 augmentation part        0.8836915 magnetization 

 Broyden mixing:
  rms(total) = 0.18036E-02    rms(broyden)= 0.18036E-02
  rms(prec ) = 0.22956E-02
  weight for this iteration     100.00

 eigenvalues of (default mixing * dielectric matrix)
  average eigenvalue GAMMA=   1.9950
  5.5385  3.1360  2.3143  1.8908  1.1772  1.1772  0.9768  0.9768  0.7676

 Free energy of the ion-electron system (eV)
  ---------------------------------------------------
  alpha Z        PSCENC =         0.02176103
  Ewald energy   TEWEN  =       461.83392156
  -Hartree energ DENC   =     -1010.83349340
  -exchange      EXHF   =         0.00000000
  -V(xc)+E(xc)   XCENC  =        58.92618625
  PAW double counting   =      1019.00502917    -1021.89888593
  entropy T*S    EENTRO =        -0.00000000
  eigenvalues    EBANDS =      -199.81389783
  atomic energy  EATOM  =       654.46437027
  Solvation  Ediel_sol  =         0.00000000
  ---------------------------------------------------
  free energy    TOTEN  =       -38.29500889 eV

  energy without entropy =      -38.29500889  energy(sigma->0) =      -38.29500889


--------------------------------------------------------------------------------------------------------




--------------------------------------- Iteration      1(  15)  ---------------------------------------


    POTLOK:  cpu time   22.3817: real time   22.4103
    SETDIJ:  cpu time    0.0755: real time    0.0755
     EDDAV:  cpu time   16.2264: real time   16.2547
       DOS:  cpu time    0.0088: real time    0.0088
    CHARGE:  cpu time    3.0907: real time    3.0944
    MIXING:  cpu time    0.7381: real time    0.7390
    --------------------------------------------
      LOOP:  cpu time   42.5211: real time   42.5828

 eigenvalue-minimisations  :    48
 total energy-change (2. order) :-0.2914336E-02  (-0.2212732E-04)
 number of electron      16.0000000 magnetization 
 augmentation part        0.8836762 magnetization 

 Broyden mixing:
  rms(total) = 0.11084E-02    rms(broyden)= 0.11084E-02
  rms(prec ) = 0.13842E-02
  weight for this iteration     100.00

 eigenvalues of (default mixing * dielectric matrix)
  average eigenvalue GAMMA=   2.1933
  7.0637  3.7907  2.6649  2.3698  1.0715  1.0715  1.0278  0.9942  0.9942  0.8845

 Free energy of the ion-electron system (eV)
  ---------------------------------------------------
  alpha Z        PSCENC =         0.02176103
  Ewald energy   TEWEN  =       461.83392156
  -Hartree energ DENC   =     -1010.89091231
  -exchange      EXHF   =         0.00000000
  -V(xc)+E(xc)   XCENC  =        58.91916256
  PAW double counting   =      1018.60072203    -1021.49378714
  entropy T*S    EENTRO =        -0.00000000
  eigenvalues    EBANDS =      -199.75316123
  atomic energy  EATOM  =       654.46437027
  Solvation  Ediel_sol  =         0.00000000
  ---------------------------------------------------
  free energy    TOTEN  =       -38.29792322 eV

  energy without entropy =      -38.29792322  energy(sigma->0) =      -38.29792322


--------------------------------------------------------------------------------------------------------




--------------------------------------- Iteration      1(  16)  ---------------------------------------


    POTLOK:  cpu time   22.3741: real time   22.4003
    SETDIJ:  cpu time    0.0549: real time    0.0549
     EDDAV:  cpu time   16.2896: real time   16.3157
       DOS:  cpu time    0.0081: real time    0.0081
    CHARGE:  cpu time    3.1469: real time    3.1517
    MIXING:  cpu time    0.7191: real time    0.7201
    --------------------------------------------
      LOOP:  cpu time   42.5927: real time   42.6508

 eigenvalue-minimisations  :    48
 total energy-change (2. order) :-0.1528367E-02  (-0.1689503E-04)
 number of electron      16.0000000 magnetization 
 augmentation part        0.8834838 magnetization 

 Broyden mixing:
  rms(total) = 0.12904E-02    rms(broyden)= 0.12904E-02
  rms(prec ) = 0.13919E-02
  weight for this iteration     100.00

 eigenvalues of (default mixing * dielectric matrix)
  average eigenvalue GAMMA=   2.3372
  7.9751  4.3043  2.6689  2.6689  1.9527  1.1119  1.1119  1.1722  0.9361  0.9361
  0.8709

 Free energy of the ion-electron system (eV)
  ---------------------------------------------------
  alpha Z        PSCENC =         0.02176103
  Ewald energy   TEWEN  =       461.83392156
  -Hartree energ DENC   =     -1010.98309827
  -exchange      EXHF   =         0.00000000
  -V(xc)+E(xc)   XCENC  =        58.91838726
  PAW double counting   =      1018.88861695    -1021.78195101
  entropy T*S    EENTRO =        -0.00000000
  eigenvalues    EBANDS =      -199.66145939
  atomic energy  EATOM  =       654.46437027
  Solvation  Ediel_sol  =         0.00000000
  ---------------------------------------------------
  free energy    TOTEN  =       -38.29945159 eV

  energy without entropy =      -38.29945159  energy(sigma->0) =      -38.29945159


--------------------------------------------------------------------------------------------------------




--------------------------------------- Iteration      1(  17)  ---------------------------------------


    POTLOK:  cpu time   22.3751: real time   22.4051
    SETDIJ:  cpu time    0.0540: real time    0.0541
     EDDAV:  cpu time   16.2786: real time   16.2999
       DOS:  cpu time    0.0096: real time    0.0096
    CHARGE:  cpu time    3.0687: real time    3.0778
    MIXING:  cpu time    0.8123: real time    0.8134
    --------------------------------------------
      LOOP:  cpu time   42.5984: real time   42.6598

 eigenvalue-minimisations  :    48
 total energy-change (2. order) :-0.9682713E-03  (-0.6677948E-05)
 number of electron      16.0000000 magnetization 
 augmentation part        0.8836236 magnetization 

 Broyden mixing:
  rms(total) = 0.34553E-03    rms(broyden)= 0.34553E-03
  rms(prec ) = 0.40737E-03
  weight for this iteration     100.00

 eigenvalues of (default mixing * dielectric matrix)
  average eigenvalue GAMMA=   2.3085
  8.1863  4.6694  3.0201  2.5072  2.2779  1.0996  1.0996  1.0632  1.0632  0.8810
  0.9173  0.9173

 Free energy of the ion-electron system (eV)
  ---------------------------------------------------
  alpha Z        PSCENC =         0.02176103
  Ewald energy   TEWEN  =       461.83392156
  -Hartree energ DENC   =     -1010.96150076
  -exchange      EXHF   =         0.00000000
  -V(xc)+E(xc)   XCENC  =        58.91500272
  PAW double counting   =      1018.64913562    -1021.54184406
  entropy T*S    EENTRO =        -0.00000000
  eigenvalues    EBANDS =      -199.68126624
  atomic energy  EATOM  =       654.46437027
  Solvation  Ediel_sol  =         0.00000000
  ---------------------------------------------------
  free energy    TOTEN  =       -38.30041986 eV

  energy without entropy =      -38.30041986  energy(sigma->0) =      -38.30041986


--------------------------------------------------------------------------------------------------------




--------------------------------------- Iteration      1(  18)  ---------------------------------------


    POTLOK:  cpu time   22.3719: real time   22.3981
    SETDIJ:  cpu time    0.0593: real time    0.0593
     EDDAV:  cpu time   16.1676: real time   16.1966
       DOS:  cpu time    0.0136: real time    0.0136
    CHARGE:  cpu time    3.1494: real time    3.1531
    MIXING:  cpu time    0.8046: real time    0.8066
    --------------------------------------------
      LOOP:  cpu time   42.5664: real time   42.6273

 eigenvalue-minimisations  :    48
 total energy-change (2. order) :-0.2114604E-03  (-0.5286069E-06)
 number of electron      16.0000000 magnetization 
 augmentation part        0.8835880 magnetization 

 Broyden mixing:
  rms(total) = 0.30437E-03    rms(broyden)= 0.30437E-03
  rms(prec ) = 0.33869E-03
  weight for this iteration     100.00

 eigenvalues of (default mixing * dielectric matrix)
  average eigenvalue GAMMA=   2.3730
  8.5980  5.0424  3.3148  2.6735  2.4565  1.4416  1.4416  1.0596  1.0596  0.9938
  0.9938  0.8866  0.8866

 Free energy of the ion-electron system (eV)
  ---------------------------------------------------
  alpha Z        PSCENC =         0.02176103
  Ewald energy   TEWEN  =       461.83392156
  -Hartree energ DENC   =     -1010.98391453
  -exchange      EXHF   =         0.00000000
  -V(xc)+E(xc)   XCENC  =        58.91591374
  PAW double counting   =      1018.81110782    -1021.70387514
  entropy T*S    EENTRO =        -0.00000000
  eigenvalues    EBANDS =      -199.65991607
  atomic energy  EATOM  =       654.46437027
  Solvation  Ediel_sol  =         0.00000000
  ---------------------------------------------------
  free energy    TOTEN  =       -38.30063132 eV

  energy without entropy =      -38.30063132  energy(sigma->0) =      -38.30063132


--------------------------------------------------------------------------------------------------------




--------------------------------------- Iteration      1(  19)  ---------------------------------------


    POTLOK:  cpu time   22.3512: real time   22.3773
    SETDIJ:  cpu time    0.0589: real time    0.0589
     EDDAV:  cpu time   14.1844: real time   14.2059
       DOS:  cpu time    0.0053: real time    0.0053
    CHARGE:  cpu time    3.1940: real time    3.1988
    MIXING:  cpu time    0.8208: real time    0.8219
    --------------------------------------------
      LOOP:  cpu time   40.6146: real time   40.6682

 eigenvalue-minimisations  :    40
 total energy-change (2. order) :-0.2053247E-03  (-0.1748285E-06)
 number of electron      16.0000000 magnetization 
 augmentation part        0.8835797 magnetization 

 Broyden mixing:
  rms(total) = 0.23833E-03    rms(broyden)= 0.23833E-03
  rms(prec ) = 0.25268E-03
  weight for this iteration     100.00

 eigenvalues of (default mixing * dielectric matrix)
  average eigenvalue GAMMA=   2.4220
  8.9105  5.6693  3.7789  2.7050  2.4936  2.2039  1.1295  1.1295  1.0755  1.0755
  0.9803  0.9803  0.8881  0.8881

 Free energy of the ion-electron system (eV)
  ---------------------------------------------------
  alpha Z        PSCENC =         0.02176103
  Ewald energy   TEWEN  =       461.83392156
  -Hartree energ DENC   =     -1010.99412339
  -exchange      EXHF   =         0.00000000
  -V(xc)+E(xc)   XCENC  =        58.91576178
  PAW double counting   =      1018.82055686    -1021.71337513
  entropy T*S    EENTRO =        -0.00000000
  eigenvalues    EBANDS =      -199.64970963
  atomic energy  EATOM  =       654.46437027
  Solvation  Ediel_sol  =         0.00000000
  ---------------------------------------------------
  free energy    TOTEN  =       -38.30083665 eV

  energy without entropy =      -38.30083665  energy(sigma->0) =      -38.30083665


--------------------------------------------------------------------------------------------------------




--------------------------------------- Iteration      1(  20)  ---------------------------------------


    POTLOK:  cpu time   22.3114: real time   22.3385
    SETDIJ:  cpu time    0.0700: real time    0.0701
     EDDAV:  cpu time   16.1420: real time   16.1735
       DOS:  cpu time    0.0053: real time    0.0053
    CHARGE:  cpu time    3.1371: real time    3.1503
    MIXING:  cpu time    0.8235: real time    0.8246
    --------------------------------------------
      LOOP:  cpu time   42.4893: real time   42.5623

 eigenvalue-minimisations  :    48
 total energy-change (2. order) :-0.7471178E-04  (-0.1282049E-06)
 number of electron      16.0000000 magnetization 
 augmentation part        0.8835705 magnetization 

 Broyden mixing:
  rms(total) = 0.63754E-04    rms(broyden)= 0.63754E-04
  rms(prec ) = 0.75224E-04
  weight for this iteration     100.00

 eigenvalues of (default mixing * dielectric matrix)
  average eigenvalue GAMMA=   2.4825
  9.0600  5.9112  3.9254  2.7996  2.7996  2.4878  2.0737  1.0936  1.0936  1.1551
  1.1551  0.9518  0.9518  0.8898  0.8898

 Free energy of the ion-electron system (eV)
  ---------------------------------------------------
  alpha Z        PSCENC =         0.02176103
  Ewald energy   TEWEN  =       461.83392156
  -Hartree energ DENC   =     -1010.99967216
  -exchange      EXHF   =         0.00000000
  -V(xc)+E(xc)   XCENC  =        58.91568648
  PAW double counting   =      1018.78815185    -1021.68102795
  entropy T*S    EENTRO =        -0.00000000
  eigenvalues    EBANDS =      -199.64410245
  atomic energy  EATOM  =       654.46437027
  Solvation  Ediel_sol  =         0.00000000
  ---------------------------------------------------
  free energy    TOTEN  =       -38.30091136 eV

  energy without entropy =      -38.30091136  energy(sigma->0) =      -38.30091136


--------------------------------------------------------------------------------------------------------




--------------------------------------- Iteration      1(  21)  ---------------------------------------


    POTLOK:  cpu time   22.3178: real time   22.3455
    SETDIJ:  cpu time    0.0533: real time    0.0533
     EDDAV:  cpu time   12.3235: real time   12.3447
       DOS:  cpu time    0.0157: real time    0.0157
    CHARGE:  cpu time    3.1247: real time    3.1284
    MIXING:  cpu time    0.9128: real time    0.9184
    --------------------------------------------
      LOOP:  cpu time   38.7479: real time   38.8061

 eigenvalue-minimisations  :    32
 total energy-change (2. order) :-0.5033777E-04  (-0.2923537E-07)
 number of electron      16.0000000 magnetization 
 augmentation part        0.8835747 magnetization 

 Broyden mixing:
  rms(total) = 0.28891E-04    rms(broyden)= 0.28891E-04
  rms(prec ) = 0.33964E-04
  weight for this iteration     100.00

 eigenvalues of (default mixing * dielectric matrix)
  average eigenvalue GAMMA=   2.4489
  9.3535  6.2394  4.3398  3.1748  2.5183  2.3928  2.0779  1.0886  1.0886  1.1686
  1.1686  0.9636  0.9636  0.9011  0.8716  0.8716

 Free energy of the ion-electron system (eV)
  ---------------------------------------------------
  alpha Z        PSCENC =         0.02176103
  Ewald energy   TEWEN  =       461.83392156
  -Hartree energ DENC   =     -1011.00075059
  -exchange      EXHF   =         0.00000000
  -V(xc)+E(xc)   XCENC  =        58.91562057
  PAW double counting   =      1018.78752244    -1021.68040230
  entropy T*S    EENTRO =        -0.00000000
  eigenvalues    EBANDS =      -199.64300468
  atomic energy  EATOM  =       654.46437027
  Solvation  Ediel_sol  =         0.00000000
  ---------------------------------------------------
  free energy    TOTEN  =       -38.30096170 eV

  energy without entropy =      -38.30096170  energy(sigma->0) =      -38.30096170


--------------------------------------------------------------------------------------------------------




--------------------------------------- Iteration      1(  22)  ---------------------------------------


    POTLOK:  cpu time   22.3082: real time   22.3340
    SETDIJ:  cpu time    0.0646: real time    0.0646
     EDDAV:  cpu time   10.1992: real time   10.2131
       DOS:  cpu time    0.0104: real time    0.0104
    CHARGE:  cpu time    3.0652: real time    3.0688
    MIXING:  cpu time    1.0154: real time    1.0167
    --------------------------------------------
      LOOP:  cpu time   36.6629: real time   36.7075

 eigenvalue-minimisations  :    24
 total energy-change (2. order) :-0.7505082E-05  (-0.2909722E-08)
 number of electron      16.0000000 magnetization 
 augmentation part        0.8835720 magnetization 

 Broyden mixing:
  rms(total) = 0.22389E-04    rms(broyden)= 0.22389E-04
  rms(prec ) = 0.26079E-04
  weight for this iteration     100.00

 eigenvalues of (default mixing * dielectric matrix)
  average eigenvalue GAMMA=   2.5451
  9.4832  6.6879  4.6819  3.5539  2.6881  2.6881  2.2536  1.9523  1.0952  1.0952
  1.2443  1.1858  0.9565  0.9565  0.9677  0.8879  0.8879

 Free energy of the ion-electron system (eV)
  ---------------------------------------------------
  alpha Z        PSCENC =         0.02176103
  Ewald energy   TEWEN  =       461.83392156
  -Hartree energ DENC   =     -1011.00189055
  -exchange      EXHF   =         0.00000000
  -V(xc)+E(xc)   XCENC  =        58.91565413
  PAW double counting   =      1018.79455891    -1021.68745171
  entropy T*S    EENTRO =        -0.00000000
  eigenvalues    EBANDS =      -199.64189286
  atomic energy  EATOM  =       654.46437027
  Solvation  Ediel_sol  =         0.00000000
  ---------------------------------------------------
  free energy    TOTEN  =       -38.30096920 eV

  energy without entropy =      -38.30096920  energy(sigma->0) =      -38.30096920


--------------------------------------------------------------------------------------------------------




--------------------------------------- Iteration      1(  23)  ---------------------------------------


    POTLOK:  cpu time   22.3181: real time   22.3468
    SETDIJ:  cpu time    0.0421: real time    0.0421
     EDDAV:  cpu time   10.2520: real time   10.2652
       DOS:  cpu time    0.0023: real time    0.0023
    CHARGE:  cpu time    3.1292: real time    3.1329
    MIXING:  cpu time    0.9770: real time    0.9783
    --------------------------------------------
      LOOP:  cpu time   36.7208: real time   36.7676

 eigenvalue-minimisations  :    24
 total energy-change (2. order) :-0.1336656E-04  (-0.5315716E-08)
 number of electron      16.0000000 magnetization 
 augmentation part        0.8835713 magnetization 

 Broyden mixing:
  rms(total) = 0.12509E-04    rms(broyden)= 0.12509E-04
  rms(prec ) = 0.13713E-04
  weight for this iteration     100.00

 eigenvalues of (default mixing * dielectric matrix)
  average eigenvalue GAMMA=   2.4913
  9.5226  6.9553  4.9374  3.7422  2.8173  2.4651  2.2130  1.5319  1.5319  1.0942
  1.0942  1.1286  1.1286  0.9598  0.9598  0.8856  0.8856  0.9891

 Free energy of the ion-electron system (eV)
  ---------------------------------------------------
  alpha Z        PSCENC =         0.02176103
  Ewald energy   TEWEN  =       461.83392156
  -Hartree energ DENC   =     -1011.00194865
  -exchange      EXHF   =         0.00000000
  -V(xc)+E(xc)   XCENC  =        58.91563301
  PAW double counting   =      1018.79058796    -1021.68346295
  entropy T*S    EENTRO =        -0.00000000
  eigenvalues    EBANDS =      -199.64184480
  atomic energy  EATOM  =       654.46437027
  Solvation  Ediel_sol  =         0.00000000
  ---------------------------------------------------
  free energy    TOTEN  =       -38.30098257 eV

  energy without entropy =      -38.30098257  energy(sigma->0) =      -38.30098257


--------------------------------------------------------------------------------------------------------




--------------------------------------- Iteration      1(  24)  ---------------------------------------


    POTLOK:  cpu time   22.3166: real time   22.3478
    SETDIJ:  cpu time    0.0593: real time    0.0593
     EDDAV:  cpu time   14.4315: real time   14.4661
       DOS:  cpu time    0.0064: real time    0.0064
    CHARGE:  cpu time    3.1667: real time    3.1739
    MIXING:  cpu time    1.0217: real time    1.0230
    --------------------------------------------
      LOOP:  cpu time   41.0022: real time   41.0765

 eigenvalue-minimisations  :    40
 total energy-change (2. order) :-0.1419160E-05  (-0.1727701E-08)
 number of electron      16.0000000 magnetization 
 augmentation part        0.8835716 magnetization 

 Broyden mixing:
  rms(total) = 0.54509E-05    rms(broyden)= 0.54509E-05
  rms(prec ) = 0.67904E-05
  weight for this iteration     100.00

 eigenvalues of (default mixing * dielectric matrix)
  average eigenvalue GAMMA=   2.5409
  9.5189  7.2242  5.0584  3.9156  2.7329  2.4665  2.4665  2.4489  2.0130  1.3638
  1.0967  1.0967  1.1281  1.0392  1.0392  0.9520  0.9520  0.8824  0.8824

 Free energy of the ion-electron system (eV)
  ---------------------------------------------------
  alpha Z        PSCENC =         0.02176103
  Ewald energy   TEWEN  =       461.83392156
  -Hartree energ DENC   =     -1011.00199716
  -exchange      EXHF   =         0.00000000
  -V(xc)+E(xc)   XCENC  =        58.91563493
  PAW double counting   =      1018.79332459    -1021.68619753
  entropy T*S    EENTRO =        -0.00000000
  eigenvalues    EBANDS =      -199.64180167
  atomic energy  EATOM  =       654.46437027
  Solvation  Ediel_sol  =         0.00000000
  ---------------------------------------------------
  free energy    TOTEN  =       -38.30098399 eV

  energy without entropy =      -38.30098399  energy(sigma->0) =      -38.30098399


--------------------------------------------------------------------------------------------------------




--------------------------------------- Iteration      1(  25)  ---------------------------------------


    POTLOK:  cpu time   22.3352: real time   22.3672
    SETDIJ:  cpu time    0.0690: real time    0.0690
     EDDAV:  cpu time   10.1859: real time   10.2053
       DOS:  cpu time    0.0021: real time    0.0021
    CHARGE:  cpu time    3.0345: real time    3.0387
    MIXING:  cpu time    1.2127: real time    1.2142
    --------------------------------------------
      LOOP:  cpu time   36.8393: real time   36.8965

 eigenvalue-minimisations  :    24
 total energy-change (2. order) :-0.2890467E-05  (-0.1306692E-08)
 number of electron      16.0000000 magnetization 
 augmentation part        0.8835717 magnetization 

 Broyden mixing:
  rms(total) = 0.53379E-05    rms(broyden)= 0.53379E-05
  rms(prec ) = 0.56952E-05
  weight for this iteration     100.00

 eigenvalues of (default mixing * dielectric matrix)
  average eigenvalue GAMMA=   2.5345
  9.6140  7.5081  5.5160  4.2600  3.2975  2.6799  2.4797  2.1984  1.5537  1.5537
  1.0947  1.0947  1.1101  1.1101  0.8831  0.8831  0.9429  0.9429  1.0092  0.9586

 Free energy of the ion-electron system (eV)
  ---------------------------------------------------
  alpha Z        PSCENC =         0.02176103
  Ewald energy   TEWEN  =       461.83392156
  -Hartree energ DENC   =     -1011.00190674
  -exchange      EXHF   =         0.00000000
  -V(xc)+E(xc)   XCENC  =        58.91562535
  PAW double counting   =      1018.79510360    -1021.68798037
  entropy T*S    EENTRO =        -0.00000000
  eigenvalues    EBANDS =      -199.64188158
  atomic energy  EATOM  =       654.46437027
  Solvation  Ediel_sol  =         0.00000000
  ---------------------------------------------------
  free energy    TOTEN  =       -38.30098688 eV

  energy without entropy =      -38.30098688  energy(sigma->0) =      -38.30098688


--------------------------------------------------------------------------------------------------------




--------------------------------------- Iteration      1(  26)  ---------------------------------------


    POTLOK:  cpu time   22.2492: real time   22.2811
    SETDIJ:  cpu time    0.0537: real time    0.0537
     EDDAV:  cpu time   10.1335: real time   10.1510
       DOS:  cpu time    0.0019: real time    0.0019
    CHARGE:  cpu time    3.1797: real time    3.1835
    MIXING:  cpu time    1.0832: real time    1.0846
    --------------------------------------------
      LOOP:  cpu time   36.7011: real time   36.7558

 eigenvalue-minimisations  :    24
 total energy-change (2. order) :-0.4387307E-06  (-0.8212471E-09)
 number of electron      16.0000000 magnetization 
 augmentation part        0.8835719 magnetization 

 Broyden mixing:
  rms(total) = 0.36983E-05    rms(broyden)= 0.36983E-05
  rms(prec ) = 0.39442E-05
  weight for this iteration     100.00

 eigenvalues of (default mixing * dielectric matrix)
  average eigenvalue GAMMA=   2.5349
  9.6293  7.6530  5.6235  4.4265  3.3060  2.8520  2.4249  2.3430  1.6450  1.6450
  1.5596  1.0944  1.0944  1.1380  1.1380  0.8821  0.8821  0.9541  0.9541  1.0190
  0.9685

 Free energy of the ion-electron system (eV)
  ---------------------------------------------------
  alpha Z        PSCENC =         0.02176103
  Ewald energy   TEWEN  =       461.83392156
  -Hartree energ DENC   =     -1011.00190022
  -exchange      EXHF   =         0.00000000
  -V(xc)+E(xc)   XCENC  =        58.91562245
  PAW double counting   =      1018.79447400    -1021.68734772
  entropy T*S    EENTRO =        -0.00000000
  eigenvalues    EBANDS =      -199.64188869
  atomic energy  EATOM  =       654.46437027
  Solvation  Ediel_sol  =         0.00000000
  ---------------------------------------------------
  free energy    TOTEN  =       -38.30098732 eV

  energy without entropy =      -38.30098732  energy(sigma->0) =      -38.30098732


--------------------------------------------------------------------------------------------------------




--------------------------------------- Iteration      1(  27)  ---------------------------------------


    POTLOK:  cpu time   22.2485: real time   22.2822
    SETDIJ:  cpu time    0.0497: real time    0.0497
     EDDAV:  cpu time   14.4272: real time   14.4460
       DOS:  cpu time    0.0377: real time    0.0378
    CHARGE:  cpu time    3.1508: real time    3.1547
    MIXING:  cpu time    1.1416: real time    1.1431
    --------------------------------------------
      LOOP:  cpu time   41.0555: real time   41.1135

 eigenvalue-minimisations  :    40
 total energy-change (2. order) :-0.4577860E-06  (-0.5714043E-09)
 number of electron      16.0000000 magnetization 
 augmentation part        0.8835719 magnetization 

 Broyden mixing:
  rms(total) = 0.18884E-05    rms(broyden)= 0.18884E-05
  rms(prec ) = 0.20209E-05
  weight for this iteration     100.00

 eigenvalues of (default mixing * dielectric matrix)
  average eigenvalue GAMMA=   2.5668
  9.6771  7.9111  6.0467  4.6696  3.7693  3.0042  2.5145  2.5145  2.2173  1.5623
  1.5623  1.0952  1.0952  1.1189  1.1189  0.9994  0.9994  0.8807  0.8807  0.9365
  0.9365  0.9602

 Free energy of the ion-electron system (eV)
  ---------------------------------------------------
  alpha Z        PSCENC =         0.02176103
  Ewald energy   TEWEN  =       461.83392156
  -Hartree energ DENC   =     -1011.00196097
  -exchange      EXHF   =         0.00000000
  -V(xc)+E(xc)   XCENC  =        58.91562202
  PAW double counting   =      1018.79380502    -1021.68667885
  entropy T*S    EENTRO =        -0.00000000
  eigenvalues    EBANDS =      -199.64182785
  atomic energy  EATOM  =       654.46437027
  Solvation  Ediel_sol  =         0.00000000
  ---------------------------------------------------
  free energy    TOTEN  =       -38.30098778 eV

  energy without entropy =      -38.30098778  energy(sigma->0) =      -38.30098778


--------------------------------------------------------------------------------------------------------




--------------------------------------- Iteration      1(  28)  ---------------------------------------


    POTLOK:  cpu time   22.1554: real time   22.1838
    SETDIJ:  cpu time    0.0971: real time    0.0971
     EDDAV:  cpu time   10.2305: real time   10.2439
       DOS:  cpu time    0.0378: real time    0.0378
    CHARGE:  cpu time    3.1234: real time    3.1328
    MIXING:  cpu time    1.1949: real time    1.1966
    --------------------------------------------
      LOOP:  cpu time   36.8391: real time   36.8920

 eigenvalue-minimisations  :    24
 total energy-change (2. order) :-0.2167994E-06  (-0.4801528E-09)
 number of electron      16.0000000 magnetization 
 augmentation part        0.8835717 magnetization 

 Broyden mixing:
  rms(total) = 0.23744E-05    rms(broyden)= 0.23744E-05
  rms(prec ) = 0.24566E-05
  weight for this iteration     100.00

 eigenvalues of (default mixing * dielectric matrix)
  average eigenvalue GAMMA=   2.5489
  9.7124  7.9628  6.2057  4.7908  3.8122  2.9607  2.7091  2.4936  2.2955  1.6093
  1.4120  1.4120  1.2722  1.0930  1.0930  1.0917  1.0917  0.8802  0.8802  0.9473
  0.9473  0.9757  0.9757

 Free energy of the ion-electron system (eV)
  ---------------------------------------------------
  alpha Z        PSCENC =         0.02176103
  Ewald energy   TEWEN  =       461.83392156
  -Hartree energ DENC   =     -1011.00206577
  -exchange      EXHF   =         0.00000000
  -V(xc)+E(xc)   XCENC  =        58.91562703
  PAW double counting   =      1018.79372042    -1021.68659519
  entropy T*S    EENTRO =        -0.00000000
  eigenvalues    EBANDS =      -199.64172734
  atomic energy  EATOM  =       654.46437027
  Solvation  Ediel_sol  =         0.00000000
  ---------------------------------------------------
  free energy    TOTEN  =       -38.30098799 eV

  energy without entropy =      -38.30098799  energy(sigma->0) =      -38.30098799


--------------------------------------------------------------------------------------------------------




--------------------------------------- Iteration      1(  29)  ---------------------------------------


    POTLOK:  cpu time   22.1439: real time   22.1705
    SETDIJ:  cpu time    0.0442: real time    0.0442
     EDDAV:  cpu time   14.1964: real time   14.2165
       DOS:  cpu time    0.0414: real time    0.0414
    --------------------------------------------
      LOOP:  cpu time   36.4259: real time   36.4726

 eigenvalue-minimisations  :    40
 total energy-change (2. order) :-0.7346284E-07  (-0.4029932E-09)
 number of electron      16.0000000 magnetization 
 augmentation part        0.8835717 magnetization 

 Free energy of the ion-electron system (eV)
  ---------------------------------------------------
  alpha Z        PSCENC =         0.02176103
  Ewald energy   TEWEN  =       461.83392156
  -Hartree energ DENC   =     -1011.00200188
  -exchange      EXHF   =         0.00000000
  -V(xc)+E(xc)   XCENC  =        58.91562473
  PAW double counting   =      1018.79396019    -1021.68683480
  entropy T*S    EENTRO =        -0.00000000
  eigenvalues    EBANDS =      -199.64178917
  atomic energy  EATOM  =       654.46437027
  Solvation  Ediel_sol  =         0.00000000
  ---------------------------------------------------
  free energy    TOTEN  =       -38.30098807 eV

  energy without entropy =      -38.30098807  energy(sigma->0) =      -38.30098807


--------------------------------------------------------------------------------------------------------




 average (electrostatic) potential at core
  the test charge radii are     0.5201  0.6991  0.7215
  (the norm of the test charge is              1.0000)
       1 -41.4996       2 -41.5003       3 -41.4504       4 -41.5009       5 -44.8033
       6 -44.8033       7 -57.8656       8 -80.5922
 
 
 
 E-fermi :  -7.1932     XC(G=0):  -0.0369     alpha+bet : -0.0079


 k-point     1 :       0.0000    0.0000    0.0000
  band No.  band energies     occupation 
      1     -25.4272      2.00000
      2     -16.8689      2.00000
      3     -13.1786      2.00000
      4      -9.3182      2.00000
      5      -9.2702      2.00000
      6      -9.2694      2.00000
      7      -9.2390      2.00000
      8      -7.2494      2.00000
      9      -0.9851      0.00000
     10      -0.2561      0.00000
     11       0.0035      0.00000
     12       0.0996      0.00000
     13       0.1112      0.00000
     14       0.1131      0.00000
     15       0.1179      0.00000
     16       0.1255      0.00000


--------------------------------------------------------------------------------------------------------


 soft charge-density along one line, spin component            1
         0         1         2         3         4         5         6         7         8         9
 total charge-density along one line
 
 pseudopotential strength for first ion, spin component:            1
 -2.339  -4.031  -0.003   0.004  -0.007
 -4.031  -6.860  -0.006   0.009  -0.015
 -0.003  -0.006  -0.335  -0.003   0.005
  0.004   0.009  -0.003  -0.333  -0.007
 -0.007  -0.015   0.005  -0.007  -0.325
 total augmentation occupancy for first ion, spin component:            1
  3.286  -0.535   0.145  -0.206   0.357
 -0.535   0.102  -0.024   0.034  -0.059
  0.145  -0.024   0.015  -0.008   0.013
 -0.206   0.034  -0.008   0.020  -0.019
  0.357  -0.059   0.013  -0.019   0.042


------------------------ aborting loop because EDIFF is reached ----------------------------------------



 DIPCOR: dipole corrections for dipol
 direction  1 min pos   380, direction  2 min pos   472, direction  3 min pos   461,
 dipolmoment          -0.003439     -0.392642      0.018693 electrons x Angstroem
 Tr[quadrupol]         3.500833

 energy correction for charged system         0.000000 eV
 dipol+quadrupol energy correction            0.000109 eV
 added-field ion interaction          0.000000 eV  (added to PSCEN)

 
  *************** adding dipol energy to TOTEN NOW **************** 
    CHARGE:  cpu time    3.1441: real time    3.1524
    FORLOC:  cpu time    1.2091: real time    1.2105
    FORNL :  cpu time    0.5067: real time    0.5074
    STRESS:  cpu time    6.2713: real time    6.2856
    FORCOR:  cpu time   21.2029: real time   21.2286
    FORHAR:  cpu time    6.6861: real time    6.6935
    MIXING:  cpu time    1.2269: real time    1.2376
    OFIELD:  cpu time    0.0000: real time    0.0000

  FORCE on cell =-STRESS in cart. coord.  units (eV):
  Direction    XX          YY          ZZ          XY          YZ          ZX
  --------------------------------------------------------------------------------------
  Alpha Z     0.02176     0.02176     0.02176
  Ewald      69.92936   266.43040   125.47409     3.01568     0.33113    54.11271
  Hartree   279.47310   442.36338   289.16549     0.53995    -0.05036     9.43368
  E(xc)     -63.66318   -63.49885   -63.43934     0.01237     0.00093     0.21813
  Local    -507.18520  -855.50010  -555.84997    -2.64916    -0.15954   -47.39478
  n-local   -46.71304   -47.15175   -46.45261     0.00886     0.03157     0.25530
  augment     7.66416     6.88488     6.56769    -0.06035    -0.00616    -1.06857
  Kinetic   260.83737   250.92324   245.19438    -0.85099    -0.14056   -15.24734
  Fock        0.00000     0.00000     0.00000     0.00000     0.00000     0.00000
  -------------------------------------------------------------------------------------
  Total       0.36433     0.47295     0.68149     0.01636     0.00702     0.30914
  in kB       0.01361     0.01767     0.02547     0.00061     0.00026     0.01155
  external pressure =        0.02 kB  Pullay stress =        0.00 kB


 VOLUME and BASIS-vectors are now :
 -----------------------------------------------------------------------------
  energy-cutoff  :     1600.00
  volume of cell :    42875.00
      direct lattice vectors                 reciprocal lattice vectors
    35.000000000  0.000000000  0.000000000     0.028571429  0.000000000  0.000000000
     0.000000000 35.000000000  0.000000000     0.000000000  0.028571429  0.000000000
     0.000000000  0.000000000 35.000000000     0.000000000  0.000000000  0.028571429

  length of vectors
    35.000000000 35.000000000 35.000000000     0.028571429  0.028571429  0.028571429


 FORCES acting on ions
    electron-ion (+dipol)            ewald-force                    non-local-force                 convergence-correction
 -----------------------------------------------------------------------------------------------
   0.443E+02 0.208E+02 -.256E+02   -.489E+02 -.227E+02 0.282E+02   0.455E+01 0.185E+01 -.263E+01   -.322E-06 0.110E-06 0.288E-06
   -.443E+02 0.208E+02 -.256E+02   0.489E+02 -.227E+02 0.282E+02   -.455E+01 0.185E+01 -.263E+01   0.476E-06 0.167E-06 0.295E-06
   0.123E-03 -.484E+02 -.722E-02   0.108E-03 0.541E+02 0.814E-02   -.107E-03 -.560E+01 -.415E-03   0.132E-06 0.624E-06 0.232E-07
   -.106E-02 0.208E+02 0.511E+02   0.166E-02 -.227E+02 -.565E+02   -.158E-03 0.185E+01 0.525E+01   0.707E-07 0.147E-06 -.512E-06
   0.375E+02 -.522E+02 0.647E+02   -.414E+02 0.573E+02 -.714E+02   0.360E+01 -.482E+01 0.621E+01   0.645E-06 -.113E-05 0.108E-05
   -.385E+02 -.577E+02 -.595E+02   0.424E+02 0.633E+02 0.656E+02   -.369E+01 -.534E+01 -.570E+01   -.640E-06 -.121E-05 -.100E-05
   -.924E-03 0.139E+02 -.144E-01   -.156E-03 -.137E+02 0.176E-01   0.410E-03 -.148E+00 -.320E-02   0.499E-06 0.204E-05 0.325E-06
   0.583E+00 0.428E+02 -.323E+01   -.104E+01 -.929E+02 0.573E+01   0.448E+00 0.496E+02 -.248E+01   -.205E-06 -.346E-05 -.502E-06
 -----------------------------------------------------------------------------------------------
   -.357E+00 -.392E+02 0.197E+01   0.444E-15 -.142E-13 0.711E-14   0.357E+00 0.392E+02 -.197E+01   0.656E-06 -.271E-05 -.518E-08
 
 
 POSITION                                       TOTAL-FORCE (eV/Angst)
 -----------------------------------------------------------------------------------
     34.10848     33.54416      0.51472        -0.098687     -0.042314      0.057024
      0.89152     33.54416      0.51472         0.098827     -0.042544      0.056591
      0.00000      0.00000      0.00000         0.000126      0.120015      0.000508
      0.00000     33.54416     33.97057         0.000446     -0.043001     -0.114070
     34.60990      5.06172     34.32433        -0.237200      0.253111     -0.405128
      0.40075      5.11910      0.61672         0.242134      0.287719      0.378160
      0.00000     33.90812      0.00000        -0.000668      0.011960     -0.000010
      0.00000      4.50000      0.00000        -0.004977     -0.544947      0.026926
 -----------------------------------------------------------------------------------
    total drift:                               -0.000012      0.000005      0.000006


--------------------------------------------------------------------------------------------------------



  FREE ENERGIE OF THE ION-ELECTRON SYSTEM (eV)
  ---------------------------------------------------
  free  energy   TOTEN  =       -38.30087936 eV

  energy  without entropy=      -38.30087936  energy(sigma->0) =      -38.30087936
 


--------------------------------------------------------------------------------------------------------


    POTLOK:  cpu time   22.3071: real time   22.3473


--------------------------------------------------------------------------------------------------------


 writing wavefunctions
     LOOP+:  cpu time 1703.6490: real time 1709.4271
    4ORBIT:  cpu time    0.0000: real time    0.0000

 total amount of memory used by VASP MPI-rank0  3720423. kBytes
=======================================================================

   base      :      30000. kBytes
   nonl-proj :     124615. kBytes
   fftplans  :    1215227. kBytes
   grid      :    2325657. kBytes
   one-center:          1. kBytes
   wavefun   :      24923. kBytes
 
  
  
 General timing and accounting informations for this job:
 ========================================================
  
                  Total CPU time used (sec):     2358.651
                            User time (sec):     2220.688
                          System time (sec):      137.963
                         Elapsed time (sec):     2373.810
  
                   Maximum memory used (kb):     4526428.
                   Average memory used (kb):           0.
  
                          Minor page faults:     59829424
                          Major page faults:          134
                 Voluntary context switches:        25426
