 vasp.6.1.2 22Jul20 (build Jan  6 2021 09:55:43) gamma-only                      
 executed on             LinuxPGI date 2021.04.01  19:42:48
 running on   16 total cores
 distrk:  each k-point on   16 cores,    1 groups
 distr:  one band on NCORE=   8 cores,    2 groups


--------------------------------------------------------------------------------------------------------


 INCAR:
 POTCAR:    PAW_PBE H_h 06Feb2004                 
 POTCAR:    PAW_PBE N_h 06Feb2004                 
 POTCAR:    PAW_PBE O_h 06Feb2004                 
 POTCAR:    PAW_PBE H_h 06Feb2004                 
   VRHFIN =H: ultrasoft test                                                                        
   LEXCH  = PE                                                                                      
   EATOM  =    12.4884 eV,    0.9179 Ry                                                             
                                                                                                    
   TITEL  = PAW_PBE H_h 06Feb2004                                                                   
   LULTRA =        F    use ultrasoft PP ?                                                          
   IUNSCR =        0    unscreen: 0-lin 1-nonlin 2-no                                               
   RPACOR =    0.000    partial core radius                                                         
   POMASS =    1.000; ZVAL   =    1.000    mass and valenz                                          
   RCORE  =    0.800    outmost cutoff radius                                                       
   RWIGS  =    0.700; RWIGS  =    0.370    wigner-seitz radius (au A)                               
   ENMAX  =  700.000; ENMIN  =  350.000 eV                                                          
   RCLOC  =    0.701    cutoff for local pot                                                        
   LCOR   =        T    correct aug charges                                                         
   LPAW   =        T    paw PP                                                                      
   EAUG   = 1000.000                                                                                
   RMAX   =    0.819    core radius for proj-oper                                                   
   RAUG   =    1.000    factor for augmentation sphere                                              
   RDEP   =    0.817    radius for radial grids                                                     
   RDEPT  =    0.817    core radius for aug-charge                                                  
                                                                                                    
   Atomic configuration                                                                             
    2 entries                                                                                       
     n  l   j            E        occ.                                                              
     1  0  0.50        -6.4927   1.0000                                                             
     2  1  0.50        -3.4015   0.0000                                                             
   Description                                                                                      
     l       E           TYP  RCUT    TYP  RCUT                                                     
     0     -6.4927493     23  0.800                                                                 
     0      6.8029130     23  0.800                                                                 
     1     -6.8029130     23  0.800                                                                 
  local pseudopotential read in
  atomic valenz-charges read in
  non local Contribution for L=            0  read in
    real space projection operators read in
  non local Contribution for L=            0  read in
    real space projection operators read in
  non local Contribution for L=            1  read in
    real space projection operators read in
    PAW grid and wavefunctions read in
 
   number of l-projection  operators is LMAX  =            3
   number of lm-projection operators is LMMAX =            5
 
 POTCAR:    PAW_PBE N_h 06Feb2004                 
   VRHFIN =N: s2p3                                                                                  
   LEXCH  = PE                                                                                      
   EATOM  =   264.5486 eV,   19.4438 Ry                                                             
                                                                                                    
   TITEL  = PAW_PBE N_h 06Feb2004                                                                   
   LULTRA =        F    use ultrasoft PP ?                                                          
   IUNSCR =        1    unscreen: 0-lin 1-nonlin 2-no                                               
   RPACOR =    0.800    partial core radius                                                         
   POMASS =   14.001; ZVAL   =    5.000    mass and valenz                                          
   RCORE  =    1.100    outmost cutoff radius                                                       
   RWIGS  =    1.480; RWIGS  =    0.783    wigner-seitz radius (au A)                               
   ENMAX  =  700.000; ENMIN  =  500.000 eV                                                          
   ICORE  =        2    local potential                                                             
   LCOR   =        T    correct aug charges                                                         
   LPAW   =        T    paw PP                                                                      
   EAUG   =  904.640                                                                                
   DEXC   =    0.000                                                                                
   RMAX   =    1.127    core radius for proj-oper                                                   
   RAUG   =    1.300    factor for augmentation sphere                                              
   RDEP   =    1.115    radius for radial grids                                                     
   RDEPT  =    1.106    core radius for aug-charge                                                  
                                                                                                    
   Atomic configuration                                                                             
    4 entries                                                                                       
     n  l   j            E        occ.                                                              
     1  0  0.50      -384.7179   2.0000                                                             
     2  0  0.50       -18.5828   2.0000                                                             
     2  1  0.50        -7.0898   3.0000                                                             
     3  2  1.50        -6.8029   0.0000                                                             
   Description                                                                                      
     l       E           TYP  RCUT    TYP  RCUT                                                     
     0    -18.5828117     23  1.100                                                                 
     0    -15.0750597     23  1.100                                                                 
     1     -7.0897851     23  1.100                                                                 
     1     -1.9663412     23  1.100                                                                 
     2     -6.8029130      7  1.100                                                                 
  local pseudopotential read in
  partial core-charges read in
  partial kinetic energy density read in
  kinetic energy density of atom read in
  atomic valenz-charges read in
  non local Contribution for L=            0  read in
    real space projection operators read in
  non local Contribution for L=            0  read in
    real space projection operators read in
  non local Contribution for L=            1  read in
    real space projection operators read in
  non local Contribution for L=            1  read in
    real space projection operators read in
    PAW grid and wavefunctions read in
 
   number of l-projection  operators is LMAX  =            4
   number of lm-projection operators is LMMAX =            8
 
 POTCAR:    PAW_PBE O_h 06Feb2004                 
   VRHFIN =O: s2p4                                                                                  
   LEXCH  = PE                                                                                      
   EATOM  =   432.3788 eV,   31.7789 Ry                                                             
                                                                                                    
   TITEL  = PAW_PBE O_h 06Feb2004                                                                   
   LULTRA =        F    use ultrasoft PP ?                                                          
   IUNSCR =        1    unscreen: 0-lin 1-nonlin 2-no                                               
   RPACOR =    0.800    partial core radius                                                         
   POMASS =   16.000; ZVAL   =    6.000    mass and valenz                                          
   RCORE  =    1.100    outmost cutoff radius                                                       
   RWIGS  =    1.400; RWIGS  =    0.741    wigner-seitz radius (au A)                               
   ENMAX  =  700.000; ENMIN  =  500.000 eV                                                          
   ICORE  =        2    local potential                                                             
   LCOR   =        T    correct aug charges                                                         
   LPAW   =        T    paw PP                                                                      
   EAUG   =  888.804                                                                                
   DEXC   =    0.000                                                                                
   RMAX   =    1.128    core radius for proj-oper                                                   
   RAUG   =    1.300    factor for augmentation sphere                                              
   RDEP   =    1.125    radius for radial grids                                                     
   RDEPT  =    1.088    core radius for aug-charge                                                  
                                                                                                    
   Atomic configuration                                                                             
    4 entries                                                                                       
     n  l   j            E        occ.                                                              
     1  0  0.50      -514.6923   2.0000                                                             
     2  0  0.50       -23.9615   2.0000                                                             
     2  1  0.50        -9.0305   4.0000                                                             
     3  2  1.50        -9.5241   0.0000                                                             
   Description                                                                                      
     l       E           TYP  RCUT    TYP  RCUT                                                     
     0    -23.9615319     23  1.100                                                                 
     0    -25.3221145     23  1.100                                                                 
     1     -9.0304911     23  1.100                                                                 
     1     -5.4802209     23  1.100                                                                 
     2     -9.5240782      7  1.100                                                                 
  local pseudopotential read in
  partial core-charges read in
  partial kinetic energy density read in
  atomic valenz-charges read in
  non local Contribution for L=            0  read in
    real space projection operators read in
  non local Contribution for L=            0  read in
    real space projection operators read in
  non local Contribution for L=            1  read in
    real space projection operators read in
  non local Contribution for L=            1  read in
    real space projection operators read in
    PAW grid and wavefunctions read in
 
   number of l-projection  operators is LMAX  =            4
   number of lm-projection operators is LMMAX =            8
 
  PAW_PBE H_h 06Feb2004                 :
 energy of atom  1       EATOM=  -12.4884
 kinetic energy error for atom=    0.0001 (will be added to EATOM!!)
  PAW_PBE N_h 06Feb2004                 :
 energy of atom  2       EATOM= -264.5486
 kinetic energy error for atom=    0.0009 (will be added to EATOM!!)
  PAW_PBE O_h 06Feb2004                 :
 energy of atom  3       EATOM= -432.3788
 kinetic energy error for atom=    0.0016 (will be added to EATOM!!)
 
 
 POSCAR:  H  N  O
  positions in cartesian coordinates
  No initial velocities read in
 exchange correlation table for  LEXCH =        8
   RHO(1)=    0.500       N(1)  =     2000
   RHO(2)=  100.500       N(2)  =     4000
 


--------------------------------------------------------------------------------------------------------


 ion  position               nearest neighbor table
   1  0.010  0.001  0.021-   6 1.01
   2  0.999  0.039  0.997-   6 1.01
   3  0.971  0.002  0.997-   6 1.01
   4  0.019  0.120  0.009-   7 0.96
   5  0.984  0.122  0.985-   7 0.96
   6  0.999  0.010  0.996-   3 1.01   2 1.01   1 1.01
   7  0.000  0.105  0.997-   5 0.96   4 0.96
 
  LATTYP: Found a simple cubic cell.
 ALAT       =    35.0000000000
  
  Lattice vectors:
  
 A1 = (  35.0000000000,   0.0000000000,   0.0000000000)
 A2 = (   0.0000000000,  35.0000000000,   0.0000000000)
 A3 = (   0.0000000000,   0.0000000000,  35.0000000000)


Analysis of symmetry for initial positions (statically):
=====================================================================
 Subroutine PRICEL returns:
 Original cell was already a primitive cell.
 

 Routine SETGRP: Setting up the symmetry group for a 
 simple cubic supercell.


 Subroutine GETGRP returns: Found  1 space group operations
 (whereof  1 operations were pure point group operations)
 out of a pool of 48 trial point group operations.


The static configuration has the point symmetry C_1 .


Analysis of symmetry for dynamics (positions and initial velocities):
=====================================================================
 Subroutine PRICEL returns:
 Original cell was already a primitive cell.
 

 Routine SETGRP: Setting up the symmetry group for a 
 simple cubic supercell.


 Subroutine GETGRP returns: Found  1 space group operations
 (whereof  1 operations were pure point group operations)
 out of a pool of 48 trial point group operations.


The dynamic configuration has the point symmetry C_1 .


 Subroutine INISYM returns: Found  1 space group operations
 (whereof  1 operations are pure point group operations),
 and found     1 'primitive' translations


----------------------------------------------------------------------------------------

                                     Primitive cell                                     

  volume of cell :   42875.0000

  direct lattice vectors                    reciprocal lattice vectors
    35.000000000  0.000000000  0.000000000     0.028571429  0.000000000  0.000000000
     0.000000000 35.000000000  0.000000000     0.000000000  0.028571429  0.000000000
     0.000000000  0.000000000 35.000000000     0.000000000  0.000000000  0.028571429

  length of vectors
    35.000000000 35.000000000 35.000000000     0.028571429  0.028571429  0.028571429

  position of ions in fractional coordinates (direct lattice)
     0.010288498  0.000702679  0.020821486
     0.999498008  0.038882065  0.996685848
     0.970673256  0.002458017  0.996686295
     0.019312931  0.120464035  0.009315050
     0.983782053  0.122382820  0.984604577
     0.998586675  0.009985768  0.996060442
     0.000398437  0.104575473  0.997303770

  ion indices of the primitive-cell ions
   primitive index   ion index
                 1           1
                 2           2
                 3           3
                 4           4
                 5           5
                 6           6
                 7           7

----------------------------------------------------------------------------------------

 
 
 KPOINTS: automatic mesh                          

Automatic generation of k-mesh.
Space group operators:
 irot       det(A)        alpha          n_x          n_y          n_z        tau_x        tau_y        tau_z
    1     1.000000     0.000000     1.000000     0.000000     0.000000     0.000000     0.000000     0.000000
 
 Subroutine IBZKPT returns following result:
 ===========================================
 
 Found      1 irreducible k-points:
 
 Following reciprocal coordinates:
            Coordinates               Weight
  0.000000  0.000000  0.000000      1.000000
 
 Following cartesian coordinates:
            Coordinates               Weight
  0.000000  0.000000  0.000000      1.000000
 


--------------------------------------------------------------------------------------------------------




 Dimension of arrays:
   k-points           NKPTS =      1   k-points in BZ     NKDIM =      1   number of bands    NBANDS=     12
   number of dos      NEDOS =    301   number of ions     NIONS =      7
   non local maximal  LDIM  =      4   non local SUM 2l+1 LMDIM =      8
   total plane-waves  NPLWV = ******
   max r-space proj   IRMAX =      1   max aug-charges    IRDMAX=  23028
   dimension x,y,z NGX =   512 NGY =  512 NGZ =  512
   dimension x,y,z NGXF=  1024 NGYF= 1024 NGZF= 1024
   support grid    NGXF=  1024 NGYF= 1024 NGZF= 1024
   ions per type =               5   1   1
   NGX,Y,Z   is equivalent  to a cutoff of  24.32, 24.32, 24.32 a.u.
   NGXF,Y,Z  is equivalent  to a cutoff of  48.64, 48.64, 48.64 a.u.

 SYSTEM =  C                                       
 POSCAR =   H  N  O                                

 Startparameter for this run:
   NWRITE =      2    write-flag & timer
   PREC   = acc       normal or accurate (medium, high low for compatibility)
   ISTART =      0    job   : 0-new  1-cont  2-samecut
   ICHARG =      2    charge: 1-file 2-atom 10-const
   ISPIN  =      1    spin polarized calculation?
   LNONCOLLINEAR =      F non collinear calculations
   LSORBIT =      F    spin-orbit coupling
   INIWAV =      1    electr: 0-lowe 1-rand  2-diag
   LASPH  =      T    aspherical Exc in radial PAW
   METAGGA=      F    non-selfconsistent MetaGGA calc.

 Electronic Relaxation 1
   ENCUT  = 2000.0 eV 147.00 Ry   12.12 a.u. 127.63127.63127.63*2*pi/ulx,y,z
   ENINI  = 2000.0     initial cutoff
   ENAUG  = 1000.0 eV  augmentation charge cutoff
   NELM   =     60;   NELMIN=  2; NELMDL= -5     # of ELM steps 
   EDIFF  = 0.1E-06   stopping-criterion for ELM
   LREAL  =      F    real-space projection
   NLSPLINE    = F    spline interpolate recip. space projectors
   LCOMPAT=      F    compatible to vasp.4.4
   GGA_COMPAT  = T    GGA compatible to vasp.4.4-vasp.4.6
   LMAXPAW     = -100 max onsite density
   LMAXMIX     =    2 max onsite mixed and CHGCAR
   VOSKOWN=      0    Vosko Wilk Nusair interpolation
   ROPT   =    0.00000   0.00000   0.00000
 Ionic relaxation
   EDIFFG = 0.1E-05   stopping-criterion for IOM
   NSW    =      0    number of steps for IOM
   NBLOCK =      1;   KBLOCK =      1    inner block; outer block 
   IBRION =     -1    ionic relax: 0-MD 1-quasi-New 2-CG
   NFREE  =      0    steps in history (QN), initial steepest desc. (CG)
   ISIF   =      2    stress and relaxation
   IWAVPR =     10    prediction:  0-non 1-charg 2-wave 3-comb
   ISYM   =      2    0-nonsym 1-usesym 2-fastsym
   LCORR  =      T    Harris-Foulkes like correction to forces

   POTIM  = 0.5000    time-step for ionic-motion
   TEIN   =    0.0    initial temperature
   TEBEG  =    0.0;   TEEND  =   0.0 temperature during run
   SMASS  =  -3.00    Nose mass-parameter (am)
   estimated Nose-frequenzy (Omega)   =  0.10E-29 period in steps = 0.13E+47 mass=  -0.280E-25a.u.
   SCALEE = 1.0000    scale energy and forces
   NPACO  =    256;   APACO  = 16.0  distance and # of slots for P.C.
   PSTRESS=    0.0 pullay stress

  Mass of Ions in am
   POMASS =   1.00 14.00 16.00
  Ionic Valenz
   ZVAL   =   1.00  5.00  6.00
  Atomic Wigner-Seitz radii
   RWIGS  =  -1.00 -1.00 -1.00
  virtual crystal weights 
   VCA    =   1.00  1.00  1.00
   NELECT =      16.0000    total number of electrons
   NUPDOWN=      -1.0000    fix difference up-down

 DOS related values:
   EMIN   =  10.00;   EMAX   =-10.00  energy-range for DOS
   EFERMI =   0.00
   ISMEAR =     0;   SIGMA  =   0.01  broadening in eV -4-tet -1-fermi 0-gaus

 Electronic relaxation 2 (details)
   IALGO  =     38    algorithm
   LDIAG  =      T    sub-space diagonalisation (order eigenvalues)
   LSUBROT=      F    optimize rotation matrix (better conditioning)
   TURBO    =      0    0=normal 1=particle mesh
   IRESTART =      0    0=no restart 2=restart with 2 vectors
   NREBOOT  =      0    no. of reboots
   NMIN     =      0    reboot dimension
   EREF     =   0.00    reference energy to select bands
   IMIX   =      4    mixing-type and parameters
     AMIX     =   0.40;   BMIX     =  1.00
     AMIX_MAG =   1.60;   BMIX_MAG =  1.00
     AMIN     =   0.10
     WC   =   100.;   INIMIX=   1;  MIXPRE=   1;  MAXMIX= -45

 Intra band minimization:
   WEIMIN = 0.0000     energy-eigenvalue tresh-hold
   EBREAK =  0.21E-08  absolut break condition
   DEPER  =   0.30     relativ break condition  

   TIME   =   0.40     timestep for ELM

  volume/ion in A,a.u.               =    6125.00     41333.54
  Fermi-wavevector in a.u.,A,eV,Ry     =   0.117864  0.222730  0.189010  0.013892
  Thomas-Fermi vector in A             =   0.732055
 
 Write flags
   LWAVE        =      T    write WAVECAR
   LDOWNSAMPLE  =      F    k-point downsampling of WAVECAR
   LCHARG       =      T    write CHGCAR
   LVTOT        =      F    write LOCPOT, total local potential
   LVHAR        =      F    write LOCPOT, Hartree potential only
   LELF         =      F    write electronic localiz. function (ELF)
   LORBIT       =      0    0 simple, 1 ext, 2 COOP (PROOUT), +10 PAW based schemes


 Dipole corrections
   LMONO  =      F    monopole corrections only (constant potential shift)
   LDIPOL =      F    correct potential (dipole corrections)
   IDIPOL =      4    1-x, 2-y, 3-z, 4-all directions 
   EPSILON=  1.0000000 bulk dielectric constant

 Exchange correlation treatment:
   GGA     =    --    GGA type
   LEXCH   =     8    internal setting for exchange type
   VOSKOWN=      0    Vosko Wilk Nusair interpolation
   LHFCALC =     F    Hartree Fock is set to
   LHFONE  =     F    Hartree Fock one center treatment
   AEXX    =    0.0000 exact exchange contribution

 Linear response parameters
   LEPSILON=     F    determine dielectric tensor
   LRPA    =     F    only Hartree local field effects (RPA)
   LNABLA  =     F    use nabla operator in PAW spheres
   LVEL    =     F    velocity operator in full k-point grid
   LINTERFAST=   F  fast interpolation
   KINTER  =     0    interpolate to denser k-point grid
   CSHIFT  =0.1000    complex shift for real part using Kramers Kronig
   OMEGAMAX=  -1.0    maximum frequency
   DEG_THRESHOLD= 0.2000000E-02 threshold for treating states as degnerate
   RTIME   =   -0.100 relaxation time in fs
  (WPLASMAI=    0.000 imaginary part of plasma frequency in eV, 0.658/RTIME)
   DFIELD  = 0.0000000 0.0000000 0.0000000 field for delta impulse in time
 
 Orbital magnetization related:
   ORBITALMAG=     F  switch on orbital magnetization
   LCHIMAG   =     F  perturbation theory with respect to B field
   DQ        =  0.001000  dq finite difference perturbation B field
   LLRAUG    =     F  two centre corrections for induced B field



--------------------------------------------------------------------------------------------------------


 Static calculation
 charge density and potential will be updated during run
 non-spin polarized calculation
 Variant of blocked Davidson
 Davidson routine will perform the subspace rotation
 perform sub-space diagonalisation
    after iterative eigenvector-optimisation
 modified Broyden-mixing scheme, WC =      100.0
 initial mixing is a Kerker type mixing with AMIX =  0.4000 and BMIX =      1.0000
 Hartree-type preconditioning will be used
 using additional bands             4
 reciprocal scheme for non local part
 use partial core corrections
 calculate Harris-corrections to forces 
   (improved forces if not selfconsistent)
 use gradient corrections 
 use of overlap-Matrix (Vanderbilt PP)
 Gauss-broadening in eV      SIGMA  =   0.01


--------------------------------------------------------------------------------------------------------


  energy-cutoff  :     2000.00
  volume of cell :    42875.00
      direct lattice vectors                 reciprocal lattice vectors
    35.000000000  0.000000000  0.000000000     0.028571429  0.000000000  0.000000000
     0.000000000 35.000000000  0.000000000     0.000000000  0.028571429  0.000000000
     0.000000000  0.000000000 35.000000000     0.000000000  0.000000000  0.028571429

  length of vectors
    35.000000000 35.000000000 35.000000000     0.028571429  0.028571429  0.028571429


 
 k-points in units of 2pi/SCALE and weight: automatic mesh                          
   0.00000000  0.00000000  0.00000000       1.000
 
 k-points in reciprocal lattice and weights: automatic mesh                          
   0.00000000  0.00000000  0.00000000       1.000
 
 position of ions in fractional coordinates (direct lattice) 
   0.01028850  0.00070268  0.02082149
   0.99949801  0.03888207  0.99668585
   0.97067326  0.00245802  0.99668630
   0.01931293  0.12046404  0.00931505
   0.98378205  0.12238282  0.98460458
   0.99858668  0.00998577  0.99606044
   0.00039844  0.10457547  0.99730377
 
 position of ions in cartesian coordinates  (Angst):
   0.36009743  0.02459378  0.72875202
  34.98243028  1.36087229 34.88400467
  33.97356397  0.08603060 34.88402033
   0.67595257  4.21624123  0.32602674
  34.43237184  4.28339870 34.46116020
  34.95053363  0.34950188 34.86211549
   0.01394528  3.66014156 34.90563195
 


--------------------------------------------------------------------------------------------------------


 use parallel FFT for orbitals z direction half grid
 k-point   1 :   0.0000 0.0000 0.0000  plane waves: 4353902

 maximum and minimum number of plane-waves per node :    544247   544233

 maximum number of plane-waves:   4353902
 maximum index in each direction: 
   IXMAX=  127   IYMAX=  127   IZMAX=  127
   IXMIN= -127   IYMIN= -127   IZMIN=    0


 parallel 3D FFT for wavefunctions:
    minimum data exchange during FFTs selected (reduces bandwidth)
 parallel 3D FFT for charge:
    minimum data exchange during FFTs selected (reduces bandwidth)


 total amount of memory used by VASP MPI-rank0  7822733. kBytes
=======================================================================

   base      :      30000. kBytes
   nonl-proj :     165447. kBytes
   fftplans  :    2602168. kBytes
   grid      :    4972871. kBytes
   one-center:          1. kBytes
   wavefun   :      52246. kBytes
 
     INWAV:  cpu time    0.0001: real time    0.0000
 Broyden mixing: mesh for mixing (old mesh)
   NGX =255   NGY =255   NGZ =255
  (NGX  =***   NGY  =***   NGZ  =***)
  gives a total of ****** points

 initial charge density was supplied:
 charge density of overlapping atoms calculated
 number of electron      16.0000000 magnetization 
 keeping initial charge density in first step


--------------------------------------------------------------------------------------------------------


 Maximum index for augmentation-charges          1248 (set IRDMAX)


--------------------------------------------------------------------------------------------------------


 First call to EWALD:  gamma=   0.051
 Maximum number of real-space cells 3x 3x 3
 Maximum number of reciprocal cells 3x 3x 3

    FEWALD:  cpu time    0.0025: real time    0.0025


--------------------------------------- Iteration      1(   1)  ---------------------------------------


    POTLOK:  cpu time   47.4640: real time   47.5224
    SETDIJ:  cpu time    0.0804: real time    0.0827
     EDDAV:  cpu time   15.1534: real time   15.1889
       DOS:  cpu time    0.0105: real time    0.0105
    --------------------------------------------
      LOOP:  cpu time   62.7083: real time   62.8044

 eigenvalue-minimisations  :    24
 total energy-change (2. order) : 0.1957357E+03  (-0.2609801E+03)
 number of electron      16.0000000 magnetization 
 augmentation part       16.0000000 magnetization 

 Free energy of the ion-electron system (eV)
  ---------------------------------------------------
  alpha Z        PSCENC =         0.01586818
  Ewald energy   TEWEN  =       553.75686727
  -Hartree energ DENC   =     -1118.06050089
  -exchange      EXHF   =         0.00000000
  -V(xc)+E(xc)   XCENC  =        54.09612256
  PAW double counting   =       558.51391053     -558.42352984
  entropy T*S    EENTRO =        -0.00000000
  eigenvalues    EBANDS =       -53.52961315
  atomic energy  EATOM  =       759.36657541
  Solvation  Ediel_sol  =         0.00000000
  ---------------------------------------------------
  free energy    TOTEN  =       195.73570007 eV

  energy without entropy =      195.73570007  energy(sigma->0) =      195.73570007


--------------------------------------------------------------------------------------------------------




--------------------------------------- Iteration      1(   2)  ---------------------------------------


     EDDAV:  cpu time   18.3862: real time   18.4158
       DOS:  cpu time    0.0129: real time    0.0129
    --------------------------------------------
      LOOP:  cpu time   18.3990: real time   18.4286

 eigenvalue-minimisations  :    32
 total energy-change (2. order) :-0.8044815E+02  (-0.6524388E+02)
 number of electron      16.0000000 magnetization 
 augmentation part       16.0000000 magnetization 

 Free energy of the ion-electron system (eV)
  ---------------------------------------------------
  alpha Z        PSCENC =         0.01586818
  Ewald energy   TEWEN  =       553.75686727
  -Hartree energ DENC   =     -1118.06050089
  -exchange      EXHF   =         0.00000000
  -V(xc)+E(xc)   XCENC  =        54.09612256
  PAW double counting   =       558.51391053     -558.42352984
  entropy T*S    EENTRO =        -0.00000000
  eigenvalues    EBANDS =      -133.97776650
  atomic energy  EATOM  =       759.36657541
  Solvation  Ediel_sol  =         0.00000000
  ---------------------------------------------------
  free energy    TOTEN  =       115.28754672 eV

  energy without entropy =      115.28754672  energy(sigma->0) =      115.28754672


--------------------------------------------------------------------------------------------------------




--------------------------------------- Iteration      1(   3)  ---------------------------------------


     EDDAV:  cpu time   25.0509: real time   25.0938
       DOS:  cpu time    0.0110: real time    0.0110
    --------------------------------------------
      LOOP:  cpu time   25.0620: real time   25.1048

 eigenvalue-minimisations  :    48
 total energy-change (2. order) :-0.1186496E+03  (-0.1182705E+03)
 number of electron      16.0000000 magnetization 
 augmentation part       16.0000000 magnetization 

 Free energy of the ion-electron system (eV)
  ---------------------------------------------------
  alpha Z        PSCENC =         0.01586818
  Ewald energy   TEWEN  =       553.75686727
  -Hartree energ DENC   =     -1118.06050089
  -exchange      EXHF   =         0.00000000
  -V(xc)+E(xc)   XCENC  =        54.09612256
  PAW double counting   =       558.51391053     -558.42352984
  entropy T*S    EENTRO =        -0.00000000
  eigenvalues    EBANDS =      -252.62737543
  atomic energy  EATOM  =       759.36657541
  Solvation  Ediel_sol  =         0.00000000
  ---------------------------------------------------
  free energy    TOTEN  =        -3.36206221 eV

  energy without entropy =       -3.36206221  energy(sigma->0) =       -3.36206221


--------------------------------------------------------------------------------------------------------




--------------------------------------- Iteration      1(   4)  ---------------------------------------


     EDDAV:  cpu time   20.3544: real time   20.3871
       DOS:  cpu time    0.0081: real time    0.0081
    --------------------------------------------
      LOOP:  cpu time   20.3625: real time   20.3952

 eigenvalue-minimisations  :    36
 total energy-change (2. order) :-0.3236805E+02  (-0.3233595E+02)
 number of electron      16.0000000 magnetization 
 augmentation part       16.0000000 magnetization 

 Free energy of the ion-electron system (eV)
  ---------------------------------------------------
  alpha Z        PSCENC =         0.01586818
  Ewald energy   TEWEN  =       553.75686727
  -Hartree energ DENC   =     -1118.06050089
  -exchange      EXHF   =         0.00000000
  -V(xc)+E(xc)   XCENC  =        54.09612256
  PAW double counting   =       558.51391053     -558.42352984
  entropy T*S    EENTRO =        -0.00000000
  eigenvalues    EBANDS =      -284.99542314
  atomic energy  EATOM  =       759.36657541
  Solvation  Ediel_sol  =         0.00000000
  ---------------------------------------------------
  free energy    TOTEN  =       -35.73010992 eV

  energy without entropy =      -35.73010992  energy(sigma->0) =      -35.73010992


--------------------------------------------------------------------------------------------------------




--------------------------------------- Iteration      1(   5)  ---------------------------------------


     EDDAV:  cpu time   18.5071: real time   18.5359
       DOS:  cpu time    0.0104: real time    0.0104
    CHARGE:  cpu time    5.4198: real time    5.4275
    MIXING:  cpu time    1.1490: real time    1.1503
    --------------------------------------------
      LOOP:  cpu time   25.0864: real time   25.1242

 eigenvalue-minimisations  :    32
 total energy-change (2. order) :-0.3298629E+01  (-0.3298365E+01)
 number of electron      16.0000000 magnetization 
 augmentation part        0.1257350 magnetization 

 Broyden mixing:
  rms(total) = 0.18106E+01    rms(broyden)= 0.18106E+01
  rms(prec ) = 0.18382E+01
  weight for this iteration     100.00

 Free energy of the ion-electron system (eV)
  ---------------------------------------------------
  alpha Z        PSCENC =         0.01586818
  Ewald energy   TEWEN  =       553.75686727
  -Hartree energ DENC   =     -1118.06050089
  -exchange      EXHF   =         0.00000000
  -V(xc)+E(xc)   XCENC  =        54.09612256
  PAW double counting   =       558.51391053     -558.42352984
  entropy T*S    EENTRO =        -0.00000000
  eigenvalues    EBANDS =      -288.29405207
  atomic energy  EATOM  =       759.36657541
  Solvation  Ediel_sol  =         0.00000000
  ---------------------------------------------------
  free energy    TOTEN  =       -39.02873885 eV

  energy without entropy =      -39.02873885  energy(sigma->0) =      -39.02873885


--------------------------------------------------------------------------------------------------------




--------------------------------------- Iteration      1(   6)  ---------------------------------------


    POTLOK:  cpu time   47.5181: real time   47.5771
    SETDIJ:  cpu time    0.0759: real time    0.0759
     EDDAV:  cpu time   16.8792: real time   16.9053
       DOS:  cpu time    0.0002: real time    0.0002
    CHARGE:  cpu time    5.1678: real time    5.1755
    MIXING:  cpu time    1.0421: real time    1.0490
    --------------------------------------------
      LOOP:  cpu time   70.6831: real time   70.7829

 eigenvalue-minimisations  :    28
 total energy-change (2. order) : 0.4556518E+01  (-0.1681313E+01)
 number of electron      16.0000000 magnetization 
 augmentation part        0.0625231 magnetization 

 Broyden mixing:
  rms(total) = 0.16513E+01    rms(broyden)= 0.16513E+01
  rms(prec ) = 0.16547E+01
  weight for this iteration     100.00

 eigenvalues of (default mixing * dielectric matrix)
  average eigenvalue GAMMA=   0.6568
  0.6568

 Free energy of the ion-electron system (eV)
  ---------------------------------------------------
  alpha Z        PSCENC =         0.01586818
  Ewald energy   TEWEN  =       553.75686727
  -Hartree energ DENC   =     -1165.39616167
  -exchange      EXHF   =         0.00000000
  -V(xc)+E(xc)   XCENC  =        56.68241388
  PAW double counting   =      1413.78987449    -1414.21374357
  entropy T*S    EENTRO =        -0.00000000
  eigenvalues    EBANDS =      -238.47391464
  atomic energy  EATOM  =       759.36657541
  Solvation  Ediel_sol  =         0.00000000
  ---------------------------------------------------
  free energy    TOTEN  =       -34.47222065 eV

  energy without entropy =      -34.47222065  energy(sigma->0) =      -34.47222065


--------------------------------------------------------------------------------------------------------




--------------------------------------- Iteration      1(   7)  ---------------------------------------


    POTLOK:  cpu time   47.7929: real time   47.8521
    SETDIJ:  cpu time    0.0958: real time    0.0958
     EDDAV:  cpu time   20.2529: real time   20.2854
       DOS:  cpu time    0.0080: real time    0.0080
    CHARGE:  cpu time    5.2476: real time    5.2550
    MIXING:  cpu time    1.0483: real time    1.0497
    --------------------------------------------
      LOOP:  cpu time   74.4455: real time   74.5459

 eigenvalue-minimisations  :    36
 total energy-change (2. order) : 0.2147326E+00  (-0.9593208E-01)
 number of electron      16.0000000 magnetization 
 augmentation part        0.0602704 magnetization 

 Broyden mixing:
  rms(total) = 0.12754E+01    rms(broyden)= 0.12754E+01
  rms(prec ) = 0.12775E+01
  weight for this iteration     100.00

 eigenvalues of (default mixing * dielectric matrix)
  average eigenvalue GAMMA=   1.6656
  1.0840  2.2472

 Free energy of the ion-electron system (eV)
  ---------------------------------------------------
  alpha Z        PSCENC =         0.01586818
  Ewald energy   TEWEN  =       553.75686727
  -Hartree energ DENC   =     -1174.01901832
  -exchange      EXHF   =         0.00000000
  -V(xc)+E(xc)   XCENC  =        57.19009851
  PAW double counting   =      2452.01404506    -2452.43840650
  entropy T*S    EENTRO =        -0.00000000
  eigenvalues    EBANDS =      -230.14351761
  atomic energy  EATOM  =       759.36657541
  Solvation  Ediel_sol  =         0.00000000
  ---------------------------------------------------
  free energy    TOTEN  =       -34.25748800 eV

  energy without entropy =      -34.25748800  energy(sigma->0) =      -34.25748800


--------------------------------------------------------------------------------------------------------




--------------------------------------- Iteration      1(   8)  ---------------------------------------


    POTLOK:  cpu time   47.9364: real time   47.9949
    SETDIJ:  cpu time    0.0845: real time    0.0846
     EDDAV:  cpu time   16.9642: real time   16.9902
       DOS:  cpu time    0.0080: real time    0.0080
    CHARGE:  cpu time    5.6336: real time    5.6408
    MIXING:  cpu time    1.0372: real time    1.0386
    --------------------------------------------
      LOOP:  cpu time   71.6639: real time   71.7571

 eigenvalue-minimisations  :    28
 total energy-change (2. order) : 0.2934481E+00  (-0.3136940E-01)
 number of electron      16.0000000 magnetization 
 augmentation part        0.0657053 magnetization 

 Broyden mixing:
  rms(total) = 0.26012E+00    rms(broyden)= 0.26012E+00
  rms(prec ) = 0.26198E+00
  weight for this iteration     100.00

 eigenvalues of (default mixing * dielectric matrix)
  average eigenvalue GAMMA=   1.3238
  2.0610  0.9552  0.9552

 Free energy of the ion-electron system (eV)
  ---------------------------------------------------
  alpha Z        PSCENC =         0.01586818
  Ewald energy   TEWEN  =       553.75686727
  -Hartree energ DENC   =     -1185.96416439
  -exchange      EXHF   =         0.00000000
  -V(xc)+E(xc)   XCENC  =        58.01549421
  PAW double counting   =      6241.32269497    -6241.65801096
  entropy T*S    EENTRO =        -0.00000000
  eigenvalues    EBANDS =      -218.81936458
  atomic energy  EATOM  =       759.36657541
  Solvation  Ediel_sol  =         0.00000000
  ---------------------------------------------------
  free energy    TOTEN  =       -33.96403989 eV

  energy without entropy =      -33.96403989  energy(sigma->0) =      -33.96403989


--------------------------------------------------------------------------------------------------------




--------------------------------------- Iteration      1(   9)  ---------------------------------------


    POTLOK:  cpu time   48.2233: real time   48.2816
    SETDIJ:  cpu time    0.0877: real time    0.0878
     EDDAV:  cpu time   20.1761: real time   20.2088
       DOS:  cpu time    0.0119: real time    0.0119
    CHARGE:  cpu time    5.2478: real time    5.2551
    MIXING:  cpu time    1.6152: real time    1.6168
    --------------------------------------------
      LOOP:  cpu time   75.3620: real time   75.4619

 eigenvalue-minimisations  :    36
 total energy-change (2. order) : 0.2541531E-01  (-0.9875275E-02)
 number of electron      16.0000000 magnetization 
 augmentation part        0.0604384 magnetization 

 Broyden mixing:
  rms(total) = 0.70117E-01    rms(broyden)= 0.70117E-01
  rms(prec ) = 0.73125E-01
  weight for this iteration     100.00

 eigenvalues of (default mixing * dielectric matrix)
  average eigenvalue GAMMA=   1.3097
  2.0083  1.3425  0.9440  0.9440

 Free energy of the ion-electron system (eV)
  ---------------------------------------------------
  alpha Z        PSCENC =         0.01586818
  Ewald energy   TEWEN  =       553.75686727
  -Hartree energ DENC   =     -1189.20334966
  -exchange      EXHF   =         0.00000000
  -V(xc)+E(xc)   XCENC  =        58.15818938
  PAW double counting   =      5840.58442713    -5840.95432804
  entropy T*S    EENTRO =        -0.00000000
  eigenvalues    EBANDS =      -215.66287425
  atomic energy  EATOM  =       759.36657541
  Solvation  Ediel_sol  =         0.00000000
  ---------------------------------------------------
  free energy    TOTEN  =       -33.93862458 eV

  energy without entropy =      -33.93862458  energy(sigma->0) =      -33.93862458


--------------------------------------------------------------------------------------------------------




--------------------------------------- Iteration      1(  10)  ---------------------------------------


    POTLOK:  cpu time   48.1573: real time   48.2167
    SETDIJ:  cpu time    0.0782: real time    0.0783
     EDDAV:  cpu time   20.2493: real time   20.2804
       DOS:  cpu time    0.0080: real time    0.0080
    CHARGE:  cpu time    5.2260: real time    5.2334
    MIXING:  cpu time    1.3323: real time    1.3340
    --------------------------------------------
      LOOP:  cpu time   75.0511: real time   75.1507

 eigenvalue-minimisations  :    36
 total energy-change (2. order) : 0.9676110E-02  (-0.4108038E-03)
 number of electron      16.0000000 magnetization 
 augmentation part        0.0601211 magnetization 

 Broyden mixing:
  rms(total) = 0.37443E-01    rms(broyden)= 0.37443E-01
  rms(prec ) = 0.40704E-01
  weight for this iteration     100.00

 eigenvalues of (default mixing * dielectric matrix)
  average eigenvalue GAMMA=   1.5430
  2.3571  2.3571  0.9565  0.9565  1.0877

 Free energy of the ion-electron system (eV)
  ---------------------------------------------------
  alpha Z        PSCENC =         0.01586818
  Ewald energy   TEWEN  =       553.75686727
  -Hartree energ DENC   =     -1190.97278667
  -exchange      EXHF   =         0.00000000
  -V(xc)+E(xc)   XCENC  =        58.22450931
  PAW double counting   =      5772.77214730    -5773.13709325
  entropy T*S    EENTRO =        -0.00000000
  eigenvalues    EBANDS =      -213.95503601
  atomic energy  EATOM  =       759.36657541
  Solvation  Ediel_sol  =         0.00000000
  ---------------------------------------------------
  free energy    TOTEN  =       -33.92894847 eV

  energy without entropy =      -33.92894847  energy(sigma->0) =      -33.92894847


--------------------------------------------------------------------------------------------------------




--------------------------------------- Iteration      1(  11)  ---------------------------------------


    POTLOK:  cpu time   48.2965: real time   48.3567
    SETDIJ:  cpu time    0.0779: real time    0.0779
     EDDAV:  cpu time   20.2087: real time   20.2401
       DOS:  cpu time    0.0026: real time    0.0026
    CHARGE:  cpu time    5.3383: real time    5.3457
    MIXING:  cpu time    1.1915: real time    1.1931
    --------------------------------------------
      LOOP:  cpu time   75.1154: real time   75.2161

 eigenvalue-minimisations  :    36
 total energy-change (2. order) : 0.6580230E-02  (-0.8096347E-03)
 number of electron      16.0000000 magnetization 
 augmentation part        0.0593595 magnetization 

 Broyden mixing:
  rms(total) = 0.16988E-01    rms(broyden)= 0.16988E-01
  rms(prec ) = 0.19491E-01
  weight for this iteration     100.00

 eigenvalues of (default mixing * dielectric matrix)
  average eigenvalue GAMMA=   1.5462
  2.9685  2.2821  1.2554  0.9915  0.9915  0.7881

 Free energy of the ion-electron system (eV)
  ---------------------------------------------------
  alpha Z        PSCENC =         0.01586818
  Ewald energy   TEWEN  =       553.75686727
  -Hartree energ DENC   =     -1193.67214763
  -exchange      EXHF   =         0.00000000
  -V(xc)+E(xc)   XCENC  =        58.31615264
  PAW double counting   =      5655.90966301    -5656.27033408
  entropy T*S    EENTRO =        -0.00000000
  eigenvalues    EBANDS =      -211.34501304
  atomic energy  EATOM  =       759.36657541
  Solvation  Ediel_sol  =         0.00000000
  ---------------------------------------------------
  free energy    TOTEN  =       -33.92236824 eV

  energy without entropy =      -33.92236824  energy(sigma->0) =      -33.92236824


--------------------------------------------------------------------------------------------------------




--------------------------------------- Iteration      1(  12)  ---------------------------------------


    POTLOK:  cpu time   48.1601: real time   48.2194
    SETDIJ:  cpu time    0.0747: real time    0.0747
     EDDAV:  cpu time   20.5777: real time   20.6094
       DOS:  cpu time    0.0097: real time    0.0097
    CHARGE:  cpu time    5.3627: real time    5.3701
    MIXING:  cpu time    1.3173: real time    1.3189
    --------------------------------------------
      LOOP:  cpu time   75.5022: real time   75.6022

 eigenvalue-minimisations  :    36
 total energy-change (2. order) :-0.1740771E-02  (-0.1792369E-03)
 number of electron      16.0000000 magnetization 
 augmentation part        0.0591765 magnetization 

 Broyden mixing:
  rms(total) = 0.10886E-01    rms(broyden)= 0.10886E-01
  rms(prec ) = 0.12877E-01
  weight for this iteration     100.00

 eigenvalues of (default mixing * dielectric matrix)
  average eigenvalue GAMMA=   1.5543
  3.0287  2.5577  1.2449  1.2449  0.9477  0.9477  0.9084

 Free energy of the ion-electron system (eV)
  ---------------------------------------------------
  alpha Z        PSCENC =         0.01586818
  Ewald energy   TEWEN  =       553.75686727
  -Hartree energ DENC   =     -1194.78225256
  -exchange      EXHF   =         0.00000000
  -V(xc)+E(xc)   XCENC  =        58.34242446
  PAW double counting   =      5628.88840936    -5629.24731973
  entropy T*S    EENTRO =        -0.00000000
  eigenvalues    EBANDS =      -210.26468140
  atomic energy  EATOM  =       759.36657541
  Solvation  Ediel_sol  =         0.00000000
  ---------------------------------------------------
  free energy    TOTEN  =       -33.92410901 eV

  energy without entropy =      -33.92410901  energy(sigma->0) =      -33.92410901


--------------------------------------------------------------------------------------------------------




--------------------------------------- Iteration      1(  13)  ---------------------------------------


    POTLOK:  cpu time   48.5473: real time   48.6063
    SETDIJ:  cpu time    0.0898: real time    0.0898
     EDDAV:  cpu time   15.2762: real time   15.2998
       DOS:  cpu time    0.0096: real time    0.0096
    CHARGE:  cpu time    5.3112: real time    5.3185
    MIXING:  cpu time    1.4805: real time    1.4824
    --------------------------------------------
      LOOP:  cpu time   70.7147: real time   70.8064

 eigenvalue-minimisations  :    24
 total energy-change (2. order) :-0.5689892E-02  (-0.1205639E-03)
 number of electron      16.0000000 magnetization 
 augmentation part        0.0592512 magnetization 

 Broyden mixing:
  rms(total) = 0.82236E-02    rms(broyden)= 0.82236E-02
  rms(prec ) = 0.93801E-02
  weight for this iteration     100.00

 eigenvalues of (default mixing * dielectric matrix)
  average eigenvalue GAMMA=   1.7930
  4.5012  2.4727  2.4727  1.0624  1.0624  0.9698  0.9698  0.8332

 Free energy of the ion-electron system (eV)
  ---------------------------------------------------
  alpha Z        PSCENC =         0.01586818
  Ewald energy   TEWEN  =       553.75686727
  -Hartree energ DENC   =     -1195.32990621
  -exchange      EXHF   =         0.00000000
  -V(xc)+E(xc)   XCENC  =        58.33514434
  PAW double counting   =      5598.75299520    -5599.11003849
  entropy T*S    EENTRO =        -0.00000000
  eigenvalues    EBANDS =      -209.71730460
  atomic energy  EATOM  =       759.36657541
  Solvation  Ediel_sol  =         0.00000000
  ---------------------------------------------------
  free energy    TOTEN  =       -33.92979891 eV

  energy without entropy =      -33.92979891  energy(sigma->0) =      -33.92979891


--------------------------------------------------------------------------------------------------------




--------------------------------------- Iteration      1(  14)  ---------------------------------------


    POTLOK:  cpu time   48.8422: real time   48.9020
    SETDIJ:  cpu time    0.0800: real time    0.0800
     EDDAV:  cpu time   20.1601: real time   20.1917
       DOS:  cpu time    0.0083: real time    0.0083
    CHARGE:  cpu time    5.6537: real time    5.6615
    MIXING:  cpu time    1.4567: real time    1.4585
    --------------------------------------------
      LOOP:  cpu time   76.2010: real time   76.3020

 eigenvalue-minimisations  :    36
 total energy-change (2. order) :-0.6247426E-02  (-0.2031490E-03)
 number of electron      16.0000000 magnetization 
 augmentation part        0.0591209 magnetization 

 Broyden mixing:
  rms(total) = 0.32638E-02    rms(broyden)= 0.32638E-02
  rms(prec ) = 0.39778E-02
  weight for this iteration     100.00

 eigenvalues of (default mixing * dielectric matrix)
  average eigenvalue GAMMA=   1.8147
  5.2913  2.7709  2.3508  1.0766  1.0766  0.9889  0.9889  0.8941  0.8941

 Free energy of the ion-electron system (eV)
  ---------------------------------------------------
  alpha Z        PSCENC =         0.01586818
  Ewald energy   TEWEN  =       553.75686727
  -Hartree energ DENC   =     -1196.14324122
  -exchange      EXHF   =         0.00000000
  -V(xc)+E(xc)   XCENC  =        58.34401038
  PAW double counting   =      5625.59814505    -5625.95458431
  entropy T*S    EENTRO =        -0.00000000
  eigenvalues    EBANDS =      -208.91968709
  atomic energy  EATOM  =       759.36657541
  Solvation  Ediel_sol  =         0.00000000
  ---------------------------------------------------
  free energy    TOTEN  =       -33.93604633 eV

  energy without entropy =      -33.93604633  energy(sigma->0) =      -33.93604633


--------------------------------------------------------------------------------------------------------




--------------------------------------- Iteration      1(  15)  ---------------------------------------


    POTLOK:  cpu time   48.2789: real time   48.3393
    SETDIJ:  cpu time    0.0947: real time    0.0947
     EDDAV:  cpu time   21.8762: real time   21.9112
       DOS:  cpu time    0.0027: real time    0.0027
    CHARGE:  cpu time    5.2666: real time    5.2738
    MIXING:  cpu time    1.8084: real time    1.8105
    --------------------------------------------
      LOOP:  cpu time   77.3274: real time   77.4322

 eigenvalue-minimisations  :    40
 total energy-change (2. order) :-0.2977997E-02  (-0.3135435E-04)
 number of electron      16.0000000 magnetization 
 augmentation part        0.0590697 magnetization 

 Broyden mixing:
  rms(total) = 0.49263E-02    rms(broyden)= 0.49263E-02
  rms(prec ) = 0.51745E-02
  weight for this iteration     100.00

 eigenvalues of (default mixing * dielectric matrix)
  average eigenvalue GAMMA=   1.9274
  5.8982  3.2354  2.1941  2.1941  1.0235  1.0235  0.9298  0.9298  0.9228  0.9228

 Free energy of the ion-electron system (eV)
  ---------------------------------------------------
  alpha Z        PSCENC =         0.01586818
  Ewald energy   TEWEN  =       553.75686727
  -Hartree energ DENC   =     -1196.29391570
  -exchange      EXHF   =         0.00000000
  -V(xc)+E(xc)   XCENC  =        58.34060913
  PAW double counting   =      5627.55371249    -5627.91009153
  entropy T*S    EENTRO =        -0.00000000
  eigenvalues    EBANDS =      -208.76864958
  atomic energy  EATOM  =       759.36657541
  Solvation  Ediel_sol  =         0.00000000
  ---------------------------------------------------
  free energy    TOTEN  =       -33.93902433 eV

  energy without entropy =      -33.93902433  energy(sigma->0) =      -33.93902433


--------------------------------------------------------------------------------------------------------




--------------------------------------- Iteration      1(  16)  ---------------------------------------


    POTLOK:  cpu time   48.2801: real time   48.3393
    SETDIJ:  cpu time    0.0895: real time    0.0895
     EDDAV:  cpu time   18.6897: real time   18.7182
       DOS:  cpu time    0.0095: real time    0.0095
    CHARGE:  cpu time    5.3153: real time    5.3225
    MIXING:  cpu time    1.8261: real time    1.8282
    --------------------------------------------
      LOOP:  cpu time   74.2101: real time   74.3072

 eigenvalue-minimisations  :    32
 total energy-change (2. order) :-0.3550229E-02  (-0.3960071E-04)
 number of electron      16.0000000 magnetization 
 augmentation part        0.0590108 magnetization 

 Broyden mixing:
  rms(total) = 0.16458E-02    rms(broyden)= 0.16458E-02
  rms(prec ) = 0.18490E-02
  weight for this iteration     100.00

 eigenvalues of (default mixing * dielectric matrix)
  average eigenvalue GAMMA=   2.0033
  6.8169  3.3039  2.6064  2.4498  1.1797  1.0116  1.0116  0.9185  0.9185  0.9099
  0.9099

 Free energy of the ion-electron system (eV)
  ---------------------------------------------------
  alpha Z        PSCENC =         0.01586818
  Ewald energy   TEWEN  =       553.75686727
  -Hartree energ DENC   =     -1196.37103696
  -exchange      EXHF   =         0.00000000
  -V(xc)+E(xc)   XCENC  =        58.33538267
  PAW double counting   =      5628.17678866    -5628.53303172
  entropy T*S    EENTRO =        -0.00000000
  eigenvalues    EBANDS =      -208.68998806
  atomic energy  EATOM  =       759.36657541
  Solvation  Ediel_sol  =         0.00000000
  ---------------------------------------------------
  free energy    TOTEN  =       -33.94257456 eV

  energy without entropy =      -33.94257456  energy(sigma->0) =      -33.94257456


--------------------------------------------------------------------------------------------------------




--------------------------------------- Iteration      1(  17)  ---------------------------------------


    POTLOK:  cpu time   48.3913: real time   48.4508
    SETDIJ:  cpu time    0.0807: real time    0.0807
     EDDAV:  cpu time   21.9039: real time   21.9377
       DOS:  cpu time    0.0014: real time    0.0014
    CHARGE:  cpu time    5.3932: real time    5.4007
    MIXING:  cpu time    1.7013: real time    1.7034
    --------------------------------------------
      LOOP:  cpu time   77.4718: real time   77.5747

 eigenvalue-minimisations  :    40
 total energy-change (2. order) :-0.1376314E-02  (-0.1038118E-04)
 number of electron      16.0000000 magnetization 
 augmentation part        0.0589763 magnetization 

 Broyden mixing:
  rms(total) = 0.11709E-02    rms(broyden)= 0.11709E-02
  rms(prec ) = 0.12838E-02
  weight for this iteration     100.00

 eigenvalues of (default mixing * dielectric matrix)
  average eigenvalue GAMMA=   2.0521
  7.1436  4.1632  2.4861  2.4861  1.3815  1.3815  1.0585  0.8628  0.9470  0.9470
  0.8840  0.8840

 Free energy of the ion-electron system (eV)
  ---------------------------------------------------
  alpha Z        PSCENC =         0.01586818
  Ewald energy   TEWEN  =       553.75686727
  -Hartree energ DENC   =     -1196.43088474
  -exchange      EXHF   =         0.00000000
  -V(xc)+E(xc)   XCENC  =        58.33452732
  PAW double counting   =      5621.97829819    -5622.33444188
  entropy T*S    EENTRO =        -0.00000000
  eigenvalues    EBANDS =      -208.63076061
  atomic energy  EATOM  =       759.36657541
  Solvation  Ediel_sol  =         0.00000000
  ---------------------------------------------------
  free energy    TOTEN  =       -33.94395087 eV

  energy without entropy =      -33.94395087  energy(sigma->0) =      -33.94395087


--------------------------------------------------------------------------------------------------------




--------------------------------------- Iteration      1(  18)  ---------------------------------------


    POTLOK:  cpu time   48.2732: real time   48.3324
    SETDIJ:  cpu time    0.0800: real time    0.0800
     EDDAV:  cpu time   21.9182: real time   21.9523
       DOS:  cpu time    0.0080: real time    0.0080
    CHARGE:  cpu time    5.2907: real time    5.2980
    MIXING:  cpu time    1.5181: real time    1.5202
    --------------------------------------------
      LOOP:  cpu time   77.0881: real time   77.1909

 eigenvalue-minimisations  :    40
 total energy-change (2. order) :-0.8316587E-03  (-0.4334757E-05)
 number of electron      16.0000000 magnetization 
 augmentation part        0.0589971 magnetization 

 Broyden mixing:
  rms(total) = 0.64085E-03    rms(broyden)= 0.64085E-03
  rms(prec ) = 0.70838E-03
  weight for this iteration     100.00

 eigenvalues of (default mixing * dielectric matrix)
  average eigenvalue GAMMA=   2.1398
  7.9562  4.5756  2.6356  2.3566  2.2685  1.2366  1.2366  0.9030  0.9030  0.9788
  0.9788  0.8944  0.8944

 Free energy of the ion-electron system (eV)
  ---------------------------------------------------
  alpha Z        PSCENC =         0.01586818
  Ewald energy   TEWEN  =       553.75686727
  -Hartree energ DENC   =     -1196.41351788
  -exchange      EXHF   =         0.00000000
  -V(xc)+E(xc)   XCENC  =        58.33214836
  PAW double counting   =      5622.88449297    -5623.24061215
  entropy T*S    EENTRO =        -0.00000000
  eigenvalues    EBANDS =      -208.64660469
  atomic energy  EATOM  =       759.36657541
  Solvation  Ediel_sol  =         0.00000000
  ---------------------------------------------------
  free energy    TOTEN  =       -33.94478253 eV

  energy without entropy =      -33.94478253  energy(sigma->0) =      -33.94478253


--------------------------------------------------------------------------------------------------------




--------------------------------------- Iteration      1(  19)  ---------------------------------------


    POTLOK:  cpu time   48.2137: real time   48.2727
    SETDIJ:  cpu time    0.0820: real time    0.0820
     EDDAV:  cpu time   18.6226: real time   18.6512
       DOS:  cpu time    0.0043: real time    0.0043
    CHARGE:  cpu time    5.3073: real time    5.3150
    MIXING:  cpu time    1.6236: real time    1.6258
    --------------------------------------------
      LOOP:  cpu time   73.8536: real time   73.9510

 eigenvalue-minimisations  :    32
 total energy-change (2. order) :-0.4673063E-03  (-0.1466546E-05)
 number of electron      16.0000000 magnetization 
 augmentation part        0.0589917 magnetization 

 Broyden mixing:
  rms(total) = 0.47815E-03    rms(broyden)= 0.47815E-03
  rms(prec ) = 0.50539E-03
  weight for this iteration     100.00

 eigenvalues of (default mixing * dielectric matrix)
  average eigenvalue GAMMA=   2.1415
  8.3617  4.8898  2.8596  2.3737  2.3737  1.2734  1.2734  0.9141  0.9802  0.9802
  0.9678  0.9678  0.8827  0.8827

 Free energy of the ion-electron system (eV)
  ---------------------------------------------------
  alpha Z        PSCENC =         0.01586818
  Ewald energy   TEWEN  =       553.75686727
  -Hartree energ DENC   =     -1196.42144145
  -exchange      EXHF   =         0.00000000
  -V(xc)+E(xc)   XCENC  =        58.33155060
  PAW double counting   =      5621.57609501    -5621.93229057
  entropy T*S    EENTRO =        -0.00000000
  eigenvalues    EBANDS =      -208.63847428
  atomic energy  EATOM  =       759.36657541
  Solvation  Ediel_sol  =         0.00000000
  ---------------------------------------------------
  free energy    TOTEN  =       -33.94524984 eV

  energy without entropy =      -33.94524984  energy(sigma->0) =      -33.94524984


--------------------------------------------------------------------------------------------------------




--------------------------------------- Iteration      1(  20)  ---------------------------------------


    POTLOK:  cpu time   48.3101: real time   48.3691
    SETDIJ:  cpu time    0.0850: real time    0.0850
     EDDAV:  cpu time   21.8637: real time   21.8975
       DOS:  cpu time    0.0067: real time    0.0067
    CHARGE:  cpu time    5.4615: real time    5.4691
    MIXING:  cpu time    2.0982: real time    2.1006
    --------------------------------------------
      LOOP:  cpu time   77.8252: real time   77.9281

 eigenvalue-minimisations  :    40
 total energy-change (2. order) :-0.1583529E-03  (-0.1981128E-06)
 number of electron      16.0000000 magnetization 
 augmentation part        0.0589947 magnetization 

 Broyden mixing:
  rms(total) = 0.27283E-03    rms(broyden)= 0.27283E-03
  rms(prec ) = 0.29533E-03
  weight for this iteration     100.00

 eigenvalues of (default mixing * dielectric matrix)
  average eigenvalue GAMMA=   2.2389
  8.7076  5.2539  3.3244  2.5325  2.5325  2.1054  1.2944  1.1591  1.1591  0.8882
  0.8882  0.9686  0.9686  0.9006  0.9006

 Free energy of the ion-electron system (eV)
  ---------------------------------------------------
  alpha Z        PSCENC =         0.01586818
  Ewald energy   TEWEN  =       553.75686727
  -Hartree energ DENC   =     -1196.42006185
  -exchange      EXHF   =         0.00000000
  -V(xc)+E(xc)   XCENC  =        58.33118665
  PAW double counting   =      5621.73269500    -5622.08886450
  entropy T*S    EENTRO =        -0.00000000
  eigenvalues    EBANDS =      -208.63967434
  atomic energy  EATOM  =       759.36657541
  Solvation  Ediel_sol  =         0.00000000
  ---------------------------------------------------
  free energy    TOTEN  =       -33.94540819 eV

  energy without entropy =      -33.94540819  energy(sigma->0) =      -33.94540819


--------------------------------------------------------------------------------------------------------




--------------------------------------- Iteration      1(  21)  ---------------------------------------


    POTLOK:  cpu time   48.0695: real time   48.1290
    SETDIJ:  cpu time    0.0925: real time    0.0926
     EDDAV:  cpu time   15.2670: real time   15.2905
       DOS:  cpu time    0.0038: real time    0.0038
    CHARGE:  cpu time    5.2802: real time    5.2878
    MIXING:  cpu time    1.9087: real time    1.9112
    --------------------------------------------
      LOOP:  cpu time   70.6217: real time   70.7148

 eigenvalue-minimisations  :    24
 total energy-change (2. order) :-0.1793713E-03  (-0.2120184E-06)
 number of electron      16.0000000 magnetization 
 augmentation part        0.0589910 magnetization 

 Broyden mixing:
  rms(total) = 0.83215E-04    rms(broyden)= 0.83215E-04
  rms(prec ) = 0.95708E-04
  weight for this iteration     100.00

 eigenvalues of (default mixing * dielectric matrix)
  average eigenvalue GAMMA=   2.2618
  9.0602  5.8426  3.8462  2.7167  2.3230  2.1862  1.3364  1.3364  0.8847  0.8847
  0.9579  0.9579  1.0353  1.0353  0.8926  0.8926

 Free energy of the ion-electron system (eV)
  ---------------------------------------------------
  alpha Z        PSCENC =         0.01586818
  Ewald energy   TEWEN  =       553.75686727
  -Hartree energ DENC   =     -1196.42259818
  -exchange      EXHF   =         0.00000000
  -V(xc)+E(xc)   XCENC  =        58.33096798
  PAW double counting   =      5622.44939378    -5622.80556113
  entropy T*S    EENTRO =        -0.00000000
  eigenvalues    EBANDS =      -208.63710086
  atomic energy  EATOM  =       759.36657541
  Solvation  Ediel_sol  =         0.00000000
  ---------------------------------------------------
  free energy    TOTEN  =       -33.94558756 eV

  energy without entropy =      -33.94558756  energy(sigma->0) =      -33.94558756


--------------------------------------------------------------------------------------------------------




--------------------------------------- Iteration      1(  22)  ---------------------------------------


    POTLOK:  cpu time   47.9667: real time   48.0260
    SETDIJ:  cpu time    0.0859: real time    0.0859
     EDDAV:  cpu time   21.8354: real time   21.8696
       DOS:  cpu time    0.0019: real time    0.0019
    CHARGE:  cpu time    5.3185: real time    5.3261
    MIXING:  cpu time    2.2026: real time    2.2052
    --------------------------------------------
      LOOP:  cpu time   77.4110: real time   77.5148

 eigenvalue-minimisations  :    40
 total energy-change (2. order) :-0.3455176E-04  (-0.4384321E-07)
 number of electron      16.0000000 magnetization 
 augmentation part        0.0589929 magnetization 

 Broyden mixing:
  rms(total) = 0.79556E-04    rms(broyden)= 0.79556E-04
  rms(prec ) = 0.85955E-04
  weight for this iteration     100.00

 eigenvalues of (default mixing * dielectric matrix)
  average eigenvalue GAMMA=   2.2645
  9.1068  6.0261  3.9970  2.6115  2.6115  2.2645  1.5506  1.5506  0.8880  0.8880
  0.9682  0.9682  1.1308  1.0619  1.0619  0.9056  0.9056

 Free energy of the ion-electron system (eV)
  ---------------------------------------------------
  alpha Z        PSCENC =         0.01586818
  Ewald energy   TEWEN  =       553.75686727
  -Hartree energ DENC   =     -1196.42237685
  -exchange      EXHF   =         0.00000000
  -V(xc)+E(xc)   XCENC  =        58.33087905
  PAW double counting   =      5622.39472678    -5622.75088617
  entropy T*S    EENTRO =        -0.00000000
  eigenvalues    EBANDS =      -208.63727578
  atomic energy  EATOM  =       759.36657541
  Solvation  Ediel_sol  =         0.00000000
  ---------------------------------------------------
  free energy    TOTEN  =       -33.94562211 eV

  energy without entropy =      -33.94562211  energy(sigma->0) =      -33.94562211


--------------------------------------------------------------------------------------------------------




--------------------------------------- Iteration      1(  23)  ---------------------------------------


    POTLOK:  cpu time   47.8293: real time   47.8885
    SETDIJ:  cpu time    0.0723: real time    0.0724
     EDDAV:  cpu time   15.3241: real time   15.3489
       DOS:  cpu time    0.0014: real time    0.0014
    CHARGE:  cpu time    5.3131: real time    5.3205
    MIXING:  cpu time    1.8424: real time    1.8450
    --------------------------------------------
      LOOP:  cpu time   70.3827: real time   70.4766

 eigenvalue-minimisations  :    24
 total energy-change (2. order) :-0.3068369E-04  (-0.1397289E-07)
 number of electron      16.0000000 magnetization 
 augmentation part        0.0589911 magnetization 

 Broyden mixing:
  rms(total) = 0.59201E-04    rms(broyden)= 0.59201E-04
  rms(prec ) = 0.61951E-04
  weight for this iteration     100.00

 eigenvalues of (default mixing * dielectric matrix)
  average eigenvalue GAMMA=   2.3306
  9.3292  6.5758  4.6130  3.1917  2.5285  2.5285  1.9571  1.4455  1.1912  1.1912
  0.8852  0.8852  0.9646  0.9646  0.9540  0.9540  0.8959  0.8959

 Free energy of the ion-electron system (eV)
  ---------------------------------------------------
  alpha Z        PSCENC =         0.01586818
  Ewald energy   TEWEN  =       553.75686727
  -Hartree energ DENC   =     -1196.42475637
  -exchange      EXHF   =         0.00000000
  -V(xc)+E(xc)   XCENC  =        58.33095968
  PAW double counting   =      5622.45438237    -5622.81054623
  entropy T*S    EENTRO =        -0.00000000
  eigenvalues    EBANDS =      -208.63500310
  atomic energy  EATOM  =       759.36657541
  Solvation  Ediel_sol  =         0.00000000
  ---------------------------------------------------
  free energy    TOTEN  =       -33.94565280 eV

  energy without entropy =      -33.94565280  energy(sigma->0) =      -33.94565280


--------------------------------------------------------------------------------------------------------




--------------------------------------- Iteration      1(  24)  ---------------------------------------


    POTLOK:  cpu time   48.1775: real time   48.2359
    SETDIJ:  cpu time    0.0768: real time    0.0768
     EDDAV:  cpu time   11.9487: real time   11.9676
       DOS:  cpu time    0.0012: real time    0.0012
    CHARGE:  cpu time    5.2691: real time    5.2764
    MIXING:  cpu time    2.1728: real time    2.1756
    --------------------------------------------
      LOOP:  cpu time   67.6460: real time   67.7335

 eigenvalue-minimisations  :    16
 total energy-change (2. order) :-0.1493602E-04  (-0.6191319E-08)
 number of electron      16.0000000 magnetization 
 augmentation part        0.0589917 magnetization 

 Broyden mixing:
  rms(total) = 0.39328E-04    rms(broyden)= 0.39328E-04
  rms(prec ) = 0.40542E-04
  weight for this iteration     100.00

 eigenvalues of (default mixing * dielectric matrix)
  average eigenvalue GAMMA=   2.2988
  9.4462  6.6422  4.7411  3.2379  2.5183  2.5183  2.0410  1.3184  1.3184  1.1831
  1.1831  0.8884  0.8884  0.9751  0.9751  1.0127  1.0127  0.8884  0.8884

 Free energy of the ion-electron system (eV)
  ---------------------------------------------------
  alpha Z        PSCENC =         0.01586818
  Ewald energy   TEWEN  =       553.75686727
  -Hartree energ DENC   =     -1196.42487154
  -exchange      EXHF   =         0.00000000
  -V(xc)+E(xc)   XCENC  =        58.33093049
  PAW double counting   =      5622.34671905    -5622.70287694
  entropy T*S    EENTRO =        -0.00000000
  eigenvalues    EBANDS =      -208.63487965
  atomic energy  EATOM  =       759.36657541
  Solvation  Ediel_sol  =         0.00000000
  ---------------------------------------------------
  free energy    TOTEN  =       -33.94566773 eV

  energy without entropy =      -33.94566773  energy(sigma->0) =      -33.94566773


--------------------------------------------------------------------------------------------------------




--------------------------------------- Iteration      1(  25)  ---------------------------------------


    POTLOK:  cpu time   48.1616: real time   48.2202
    SETDIJ:  cpu time    0.0926: real time    0.0927
     EDDAV:  cpu time   15.2115: real time   15.2348
       DOS:  cpu time    0.0014: real time    0.0014
    CHARGE:  cpu time    5.1053: real time    5.1126
    MIXING:  cpu time    2.3677: real time    2.3708
    --------------------------------------------
      LOOP:  cpu time   70.9402: real time   71.0325

 eigenvalue-minimisations  :    24
 total energy-change (2. order) :-0.4672241E-05  (-0.2619252E-08)
 number of electron      16.0000000 magnetization 
 augmentation part        0.0589917 magnetization 

 Broyden mixing:
  rms(total) = 0.14965E-04    rms(broyden)= 0.14965E-04
  rms(prec ) = 0.16331E-04
  weight for this iteration     100.00

 eigenvalues of (default mixing * dielectric matrix)
  average eigenvalue GAMMA=   2.3727
  9.4994  7.0943  5.0862  3.8367  2.6465  2.5265  2.5265  1.7544  1.7544  1.1672
  1.1672  0.8867  0.8867  0.9711  0.9711  0.9943  0.9943  0.8951  0.8951  0.8997

 Free energy of the ion-electron system (eV)
  ---------------------------------------------------
  alpha Z        PSCENC =         0.01586818
  Ewald energy   TEWEN  =       553.75686727
  -Hartree energ DENC   =     -1196.42450705
  -exchange      EXHF   =         0.00000000
  -V(xc)+E(xc)   XCENC  =        58.33090642
  PAW double counting   =      5622.33148896    -5622.68764557
  entropy T*S    EENTRO =        -0.00000000
  eigenvalues    EBANDS =      -208.63522601
  atomic energy  EATOM  =       759.36657541
  Solvation  Ediel_sol  =         0.00000000
  ---------------------------------------------------
  free energy    TOTEN  =       -33.94567240 eV

  energy without entropy =      -33.94567240  energy(sigma->0) =      -33.94567240


--------------------------------------------------------------------------------------------------------




--------------------------------------- Iteration      1(  26)  ---------------------------------------


    POTLOK:  cpu time   48.1194: real time   48.1781
    SETDIJ:  cpu time    0.0786: real time    0.0787
     EDDAV:  cpu time   11.9006: real time   11.9195
       DOS:  cpu time    0.0005: real time    0.0005
    CHARGE:  cpu time    5.2325: real time    5.2397
    MIXING:  cpu time    2.1831: real time    2.1862
    --------------------------------------------
      LOOP:  cpu time   67.5148: real time   67.6027

 eigenvalue-minimisations  :    16
 total energy-change (2. order) :-0.4718526E-05  (-0.3958524E-08)
 number of electron      16.0000000 magnetization 
 augmentation part        0.0589921 magnetization 

 Broyden mixing:
  rms(total) = 0.16799E-04    rms(broyden)= 0.16799E-04
  rms(prec ) = 0.17143E-04
  weight for this iteration     100.00

 eigenvalues of (default mixing * dielectric matrix)
  average eigenvalue GAMMA=   2.3348
  9.5267  7.2324  5.2424  3.9314  2.7507  2.4881  2.4881  1.7852  1.7852  1.2016
  1.2016  0.8873  0.8873  1.0686  1.0686  0.9682  0.9682  0.9363  0.8958  0.8958
  0.8207

 Free energy of the ion-electron system (eV)
  ---------------------------------------------------
  alpha Z        PSCENC =         0.01586818
  Ewald energy   TEWEN  =       553.75686727
  -Hartree energ DENC   =     -1196.42393892
  -exchange      EXHF   =         0.00000000
  -V(xc)+E(xc)   XCENC  =        58.33087785
  PAW double counting   =      5622.33671003    -5622.69286584
  entropy T*S    EENTRO =        -0.00000000
  eigenvalues    EBANDS =      -208.63577110
  atomic energy  EATOM  =       759.36657541
  Solvation  Ediel_sol  =         0.00000000
  ---------------------------------------------------
  free energy    TOTEN  =       -33.94567712 eV

  energy without entropy =      -33.94567712  energy(sigma->0) =      -33.94567712


--------------------------------------------------------------------------------------------------------




--------------------------------------- Iteration      1(  27)  ---------------------------------------


    POTLOK:  cpu time   48.0038: real time   48.0637
    SETDIJ:  cpu time    0.0898: real time    0.0898
     EDDAV:  cpu time   15.1202: real time   15.1448
       DOS:  cpu time    0.0061: real time    0.0061
    CHARGE:  cpu time    5.1887: real time    5.1959
    MIXING:  cpu time    2.4942: real time    2.4973
    --------------------------------------------
      LOOP:  cpu time   70.9027: real time   70.9976

 eigenvalue-minimisations  :    24
 total energy-change (2. order) :-0.6875587E-06  (-0.1632657E-08)
 number of electron      16.0000000 magnetization 
 augmentation part        0.0589921 magnetization 

 Broyden mixing:
  rms(total) = 0.13195E-04    rms(broyden)= 0.13195E-04
  rms(prec ) = 0.13412E-04
  weight for this iteration     100.00

 eigenvalues of (default mixing * dielectric matrix)
  average eigenvalue GAMMA=   2.3492
  9.6139  7.3029  5.5678  3.9792  3.1530  2.3891  2.3891  1.6851  1.6851  1.6559
  1.6559  1.1661  1.1661  0.8867  0.8867  0.9686  0.9686  0.9547  0.9547  0.8968
  0.8781  0.8781

 Free energy of the ion-electron system (eV)
  ---------------------------------------------------
  alpha Z        PSCENC =         0.01586818
  Ewald energy   TEWEN  =       553.75686727
  -Hartree energ DENC   =     -1196.42416991
  -exchange      EXHF   =         0.00000000
  -V(xc)+E(xc)   XCENC  =        58.33088861
  PAW double counting   =      5622.32577763    -5622.68193556
  entropy T*S    EENTRO =        -0.00000000
  eigenvalues    EBANDS =      -208.63554943
  atomic energy  EATOM  =       759.36657541
  Solvation  Ediel_sol  =         0.00000000
  ---------------------------------------------------
  free energy    TOTEN  =       -33.94567781 eV

  energy without entropy =      -33.94567781  energy(sigma->0) =      -33.94567781


--------------------------------------------------------------------------------------------------------




--------------------------------------- Iteration      1(  28)  ---------------------------------------


    POTLOK:  cpu time   48.1576: real time   48.2175
    SETDIJ:  cpu time    0.0739: real time    0.0739
     EDDAV:  cpu time   11.8832: real time   11.9015
       DOS:  cpu time    0.0032: real time    0.0032
    CHARGE:  cpu time    5.6832: real time    5.6904
    MIXING:  cpu time    2.2457: real time    2.2489
    --------------------------------------------
      LOOP:  cpu time   68.0468: real time   68.1354

 eigenvalue-minimisations  :    16
 total energy-change (2. order) :-0.9946268E-06  (-0.1321604E-08)
 number of electron      16.0000000 magnetization 
 augmentation part        0.0589918 magnetization 

 Broyden mixing:
  rms(total) = 0.11926E-04    rms(broyden)= 0.11926E-04
  rms(prec ) = 0.11999E-04
  weight for this iteration     100.00

 eigenvalues of (default mixing * dielectric matrix)
  average eigenvalue GAMMA=   2.3545
  9.6409  7.4947  5.7528  4.1551  3.1281  2.5684  2.2720  2.2720  2.1092  1.7446
  1.3282  1.3282  0.8868  0.8868  1.0786  1.0786  0.9664  0.9664  0.9545  0.8947
  0.8947  0.8762  0.8762

 Free energy of the ion-electron system (eV)
  ---------------------------------------------------
  alpha Z        PSCENC =         0.01586818
  Ewald energy   TEWEN  =       553.75686727
  -Hartree energ DENC   =     -1196.42445461
  -exchange      EXHF   =         0.00000000
  -V(xc)+E(xc)   XCENC  =        58.33090066
  PAW double counting   =      5622.30943398    -5622.66559432
  entropy T*S    EENTRO =        -0.00000000
  eigenvalues    EBANDS =      -208.63527537
  atomic energy  EATOM  =       759.36657541
  Solvation  Ediel_sol  =         0.00000000
  ---------------------------------------------------
  free energy    TOTEN  =       -33.94567880 eV

  energy without entropy =      -33.94567880  energy(sigma->0) =      -33.94567880


--------------------------------------------------------------------------------------------------------




--------------------------------------- Iteration      1(  29)  ---------------------------------------


    POTLOK:  cpu time   47.8454: real time   47.9048
    SETDIJ:  cpu time    0.0748: real time    0.0749
     EDDAV:  cpu time   15.1225: real time   15.1458
       DOS:  cpu time    0.0005: real time    0.0005
    CHARGE:  cpu time    5.0168: real time    5.0241
    MIXING:  cpu time    3.0040: real time    3.0075
    --------------------------------------------
      LOOP:  cpu time   71.0640: real time   71.1576

 eigenvalue-minimisations  :    24
 total energy-change (2. order) :-0.3973064E-06  (-0.1001142E-08)
 number of electron      16.0000000 magnetization 
 augmentation part        0.0589919 magnetization 

 Broyden mixing:
  rms(total) = 0.32023E-05    rms(broyden)= 0.32023E-05
  rms(prec ) = 0.33028E-05
  weight for this iteration     100.00

 eigenvalues of (default mixing * dielectric matrix)
  average eigenvalue GAMMA=   2.3466
  9.6575  7.7203  5.9015  4.5057  3.3929  2.6898  2.3077  2.3077  1.8056  1.8056
  1.3553  1.3553  1.1553  1.1553  0.8867  0.8867  0.9697  0.9697  0.9684  0.9684
  0.8988  0.8988  0.8782  0.8782

 Free energy of the ion-electron system (eV)
  ---------------------------------------------------
  alpha Z        PSCENC =         0.01586818
  Ewald energy   TEWEN  =       553.75686727
  -Hartree energ DENC   =     -1196.42436023
  -exchange      EXHF   =         0.00000000
  -V(xc)+E(xc)   XCENC  =        58.33089658
  PAW double counting   =      5622.33360149    -5622.68976068
  entropy T*S    EENTRO =        -0.00000000
  eigenvalues    EBANDS =      -208.63536722
  atomic energy  EATOM  =       759.36657541
  Solvation  Ediel_sol  =         0.00000000
  ---------------------------------------------------
  free energy    TOTEN  =       -33.94567920 eV

  energy without entropy =      -33.94567920  energy(sigma->0) =      -33.94567920


--------------------------------------------------------------------------------------------------------




--------------------------------------- Iteration      1(  30)  ---------------------------------------


    POTLOK:  cpu time   47.8089: real time   47.8677
    SETDIJ:  cpu time    0.0710: real time    0.0710
     EDDAV:  cpu time   11.8746: real time   11.8931
       DOS:  cpu time    0.0001: real time    0.0001
    CHARGE:  cpu time    5.3619: real time    5.3691
    MIXING:  cpu time    2.6275: real time    2.6311
    --------------------------------------------
      LOOP:  cpu time   67.7440: real time   67.8321

 eigenvalue-minimisations  :    16
 total energy-change (2. order) :-0.1478966E-06  (-0.9304575E-09)
 number of electron      16.0000000 magnetization 
 augmentation part        0.0589919 magnetization 

 Broyden mixing:
  rms(total) = 0.30469E-05    rms(broyden)= 0.30469E-05
  rms(prec ) = 0.30997E-05
  weight for this iteration     100.00

 eigenvalues of (default mixing * dielectric matrix)
  average eigenvalue GAMMA=   2.3365
  9.6526  7.7872  5.9544  4.4839  3.3634  2.6930  2.3667  2.3667  2.0426  2.0426
  1.5919  1.5919  1.1635  1.1635  0.8866  0.8866  0.9675  0.9675  1.0142  1.0142
  0.8865  0.8865  0.8756  0.8822  0.8822

 Free energy of the ion-electron system (eV)
  ---------------------------------------------------
  alpha Z        PSCENC =         0.01586818
  Ewald energy   TEWEN  =       553.75686727
  -Hartree energ DENC   =     -1196.42431320
  -exchange      EXHF   =         0.00000000
  -V(xc)+E(xc)   XCENC  =        58.33089465
  PAW double counting   =      5622.34131922    -5622.69747801
  entropy T*S    EENTRO =        -0.00000000
  eigenvalues    EBANDS =      -208.63541286
  atomic energy  EATOM  =       759.36657541
  Solvation  Ediel_sol  =         0.00000000
  ---------------------------------------------------
  free energy    TOTEN  =       -33.94567935 eV

  energy without entropy =      -33.94567935  energy(sigma->0) =      -33.94567935


--------------------------------------------------------------------------------------------------------




--------------------------------------- Iteration      1(  31)  ---------------------------------------


    POTLOK:  cpu time   47.6115: real time   47.6719
    SETDIJ:  cpu time    0.0896: real time    0.0896
     EDDAV:  cpu time   15.1394: real time   15.1627
       DOS:  cpu time    0.0007: real time    0.0007
    CHARGE:  cpu time    5.1004: real time    5.1078
    MIXING:  cpu time    3.1509: real time    3.1546
    --------------------------------------------
      LOOP:  cpu time   71.0925: real time   71.1875

 eigenvalue-minimisations  :    24
 total energy-change (2. order) :-0.1436485E-06  (-0.8347758E-09)
 number of electron      16.0000000 magnetization 
 augmentation part        0.0589919 magnetization 

 Broyden mixing:
  rms(total) = 0.91262E-06    rms(broyden)= 0.91262E-06
  rms(prec ) = 0.98135E-06
  weight for this iteration     100.00

 eigenvalues of (default mixing * dielectric matrix)
  average eigenvalue GAMMA=   2.3620
  9.6892  8.0578  6.2726  4.8799  3.7718  2.9537  2.6092  2.4154  2.0305  1.8147
  1.8147  1.3465  1.3465  0.8868  0.8868  1.0934  1.0934  0.9692  0.9692  1.0376
  1.0376  0.8769  0.8769  0.9108  0.9108  0.8609

 Free energy of the ion-electron system (eV)
  ---------------------------------------------------
  alpha Z        PSCENC =         0.01586818
  Ewald energy   TEWEN  =       553.75686727
  -Hartree energ DENC   =     -1196.42427064
  -exchange      EXHF   =         0.00000000
  -V(xc)+E(xc)   XCENC  =        58.33089270
  PAW double counting   =      5622.34013674    -5622.69629504
  entropy T*S    EENTRO =        -0.00000000
  eigenvalues    EBANDS =      -208.63545411
  atomic energy  EATOM  =       759.36657541
  Solvation  Ediel_sol  =         0.00000000
  ---------------------------------------------------
  free energy    TOTEN  =       -33.94567949 eV

  energy without entropy =      -33.94567949  energy(sigma->0) =      -33.94567949


--------------------------------------------------------------------------------------------------------




--------------------------------------- Iteration      1(  32)  ---------------------------------------


    POTLOK:  cpu time   47.9189: real time   47.9766
    SETDIJ:  cpu time    0.0733: real time    0.0733
     EDDAV:  cpu time   11.8627: real time   11.8808
       DOS:  cpu time    0.0005: real time    0.0005
    --------------------------------------------
      LOOP:  cpu time   59.8554: real time   59.9313

 eigenvalue-minimisations  :    16
 total energy-change (2. order) :-0.4557432E-07  (-0.7432668E-09)
 number of electron      16.0000000 magnetization 
 augmentation part        0.0589919 magnetization 

 Free energy of the ion-electron system (eV)
  ---------------------------------------------------
  alpha Z        PSCENC =         0.01586818
  Ewald energy   TEWEN  =       553.75686727
  -Hartree energ DENC   =     -1196.42427064
  -exchange      EXHF   =         0.00000000
  -V(xc)+E(xc)   XCENC  =        58.33089286
  PAW double counting   =      5622.34210151    -5622.69825958
  entropy T*S    EENTRO =        -0.00000000
  eigenvalues    EBANDS =      -208.63545454
  atomic energy  EATOM  =       759.36657541
  Solvation  Ediel_sol  =         0.00000000
  ---------------------------------------------------
  free energy    TOTEN  =       -33.94567954 eV

  energy without entropy =      -33.94567954  energy(sigma->0) =      -33.94567954


--------------------------------------------------------------------------------------------------------




 average (electrostatic) potential at core
  the test charge radii are     0.4325  0.5902  0.5955
  (the norm of the test charge is              1.0000)
       1 -45.6989       2 -45.4591       3 -45.6975       4 -47.9874       5 -47.9868
       6-102.3371       7-119.9398
 
 
 
 E-fermi :  -5.5821     XC(G=0):  -0.0334     alpha+bet : -0.0072


 k-point     1 :       0.0000    0.0000    0.0000
  band No.  band energies     occupation 
      1     -25.6969      2.00000
      2     -20.6543      2.00000
      3     -13.4660      2.00000
      4     -10.8433      2.00000
      5     -10.8073      2.00000
      6      -9.6314      2.00000
      7      -7.5711      2.00000
      8      -5.6474      2.00000
      9      -1.1532      0.00000
     10      -0.2226      0.00000
     11       0.0000      0.00000
     12       0.0748      0.00000


--------------------------------------------------------------------------------------------------------


 soft charge-density along one line, spin component            1
         0         1         2         3         4         5         6         7         8         9
 total charge-density along one line
 
 pseudopotential strength for first ion, spin component:            1
 -2.527  -5.373  -0.003   0.006   0.003
 -5.373 -11.397  -0.006   0.014   0.007
 -0.003  -0.006  -1.394  -0.005  -0.003
  0.006   0.014  -0.005  -1.383   0.007
  0.003   0.007  -0.003   0.007  -1.393
 total augmentation occupancy for first ion, spin component:            1
  3.903  -0.648   0.099  -0.255  -0.125
 -0.648   0.126  -0.016   0.044   0.020
  0.099  -0.016   0.007  -0.004  -0.004
 -0.255   0.044  -0.004   0.019   0.005
 -0.125   0.020  -0.004   0.005   0.009


------------------------ aborting loop because EDIFF is reached ----------------------------------------



 DIPCOR: dipole corrections for dipol
 direction  1 min pos   618, direction  2 min pos   605, direction  3 min pos   503,
 dipolmoment           0.114334     -0.572623     -0.232766 electrons x Angstroem
 Tr[quadrupol]         6.576053

 energy correction for charged system         0.000000 eV
 dipol+quadrupol energy correction            0.000278 eV
 added-field ion interaction          0.000000 eV  (added to PSCEN)

 
  *************** adding dipol energy to TOTEN NOW **************** 
    CHARGE:  cpu time    5.2006: real time    5.2078
    FORLOC:  cpu time    3.5185: real time    3.5211
    FORNL :  cpu time    0.8177: real time    0.8190
    STRESS:  cpu time    9.9617: real time    9.9766
    FORCOR:  cpu time   46.5817: real time   46.6363
    FORHAR:  cpu time   14.5582: real time   14.5746
    MIXING:  cpu time    2.6207: real time    2.6243
    OFIELD:  cpu time    0.0000: real time    0.0000

  FORCE on cell =-STRESS in cart. coord.  units (eV):
  Direction    XX          YY          ZZ          XY          YZ          ZX
  --------------------------------------------------------------------------------------
  Alpha Z     0.01587     0.01587     0.01587
  Ewald     124.25801   380.94431    48.55454    22.80424   -30.38198    86.52568
  Hartree   324.74813   561.07088   310.60535    10.27873    -7.12326    15.75660
  E(xc)     -69.07503   -69.01620   -69.40322     0.06085    -0.11672     0.38007
  Local    -686.14194 -1181.38330  -619.74638   -28.87843    29.11569   -75.13650
  n-local   -36.18343   -36.99713   -39.70558     0.64798    -1.32885     4.02612
  augment     0.63364     0.66365     0.95889    -0.02924     0.07029    -0.40982
  Kinetic   342.49942   345.48002   369.16558    -4.82185     9.63951   -30.78167
  Fock        0.00000     0.00000     0.00000     0.00000     0.00000     0.00000
  -------------------------------------------------------------------------------------
  Total       0.75467     0.77811     0.44506     0.06227    -0.12532     0.36047
  in kB       0.02820     0.02908     0.01663     0.00233    -0.00468     0.01347
  external pressure =        0.02 kB  Pullay stress =        0.00 kB


 VOLUME and BASIS-vectors are now :
 -----------------------------------------------------------------------------
  energy-cutoff  :     2000.00
  volume of cell :    42875.00
      direct lattice vectors                 reciprocal lattice vectors
    35.000000000  0.000000000  0.000000000     0.028571429  0.000000000  0.000000000
     0.000000000 35.000000000  0.000000000     0.000000000  0.028571429  0.000000000
     0.000000000  0.000000000 35.000000000     0.000000000  0.000000000  0.028571429

  length of vectors
    35.000000000 35.000000000 35.000000000     0.028571429  0.028571429  0.028571429


 FORCES acting on ions
    electron-ion (+dipol)            ewald-force                    non-local-force                 convergence-correction
 -----------------------------------------------------------------------------------------------
   -.318E+02 0.321E+02 -.610E+02   0.350E+02 -.346E+02 0.675E+02   -.310E+01 0.244E+01 -.613E+01   0.147E-05 -.135E-05 0.532E-05
   -.367E+01 -.516E+02 0.146E+01   0.402E+01 0.595E+02 -.148E+01   -.341E+00 -.744E+01 0.211E-01   -.438E-06 0.503E-05 0.109E-05
   0.706E+02 0.277E+02 0.134E+01   -.780E+02 -.298E+02 -.134E+01   0.701E+01 0.199E+01 0.269E-01   -.549E-05 -.103E-05 0.108E-05
   -.647E+02 -.563E+02 -.412E+02   0.710E+02 0.613E+02 0.452E+02   -.605E+01 -.477E+01 -.386E+01   0.165E-05 0.175E-05 0.103E-05
   0.570E+02 -.627E+02 0.434E+02   -.626E+02 0.683E+02 -.477E+02   0.536E+01 -.539E+01 0.407E+01   -.140E-05 0.194E-05 -.107E-05
   -.212E+02 0.668E+02 0.384E+02   0.362E+02 -.775E+02 -.638E+02   -.148E+02 0.104E+02 0.251E+02   -.742E-05 0.291E-05 0.120E-04
   0.223E+01 -.366E+01 -.727E+00   -.568E+01 -.472E+02 0.170E+01   0.341E+01 0.504E+02 -.942E+00   0.241E-06 0.787E-05 0.764E-06
 -----------------------------------------------------------------------------------------------
   0.851E+01 -.477E+02 -.183E+02   -.124E-13 -.142E-13 0.167E-13   -.851E+01 0.477E+02 0.183E+02   -.114E-04 0.171E-04 0.202E-04
 
 
 POSITION                                       TOTAL-FORCE (eV/Angst)
 -----------------------------------------------------------------------------------
      0.36010      0.02459      0.72875         0.129366     -0.134708      0.311016
     34.98243      1.36087     34.88400         0.008367      0.477357     -0.002968
     33.97356      0.08603     34.88402        -0.343896     -0.105308      0.024085
      0.67595      4.21624      0.32603         0.314188      0.190986      0.194753
     34.43237      4.28340     34.46116        -0.277886      0.218043     -0.219201
     34.95053      0.34950     34.86212         0.205018     -0.233408     -0.336144
      0.01395      3.66014     34.90563        -0.035157     -0.412962      0.028459
 -----------------------------------------------------------------------------------
    total drift:                               -0.000007     -0.000008     -0.000010


--------------------------------------------------------------------------------------------------------



  FREE ENERGIE OF THE ION-ELECTRON SYSTEM (eV)
  ---------------------------------------------------
  free  energy   TOTEN  =       -33.94540158 eV

  energy  without entropy=      -33.94540158  energy(sigma->0) =      -33.94540158
 


--------------------------------------------------------------------------------------------------------


    POTLOK:  cpu time   48.0299: real time   48.0884


--------------------------------------------------------------------------------------------------------


 writing wavefunctions
     LOOP+:  cpu time 3153.2392: real time 3156.7925
    4ORBIT:  cpu time    0.0000: real time    0.0000

 total amount of memory used by VASP MPI-rank0  7822733. kBytes
=======================================================================

   base      :      30000. kBytes
   nonl-proj :     165447. kBytes
   fftplans  :    2602168. kBytes
   grid      :    4972871. kBytes
   one-center:          1. kBytes
   wavefun   :      52246. kBytes
 
  
  
 General timing and accounting informations for this job:
 ========================================================
  
                  Total CPU time used (sec):     4201.346
                            User time (sec):     4028.556
                          System time (sec):      172.790
                         Elapsed time (sec):     4207.137
  
                   Maximum memory used (kb):    10397764.
                   Average memory used (kb):           0.
  
                          Minor page faults:    163891510
                          Major page faults:          163
                 Voluntary context switches:         2993
