 vasp.6.1.2 22Jul20 (build Jan  6 2021 09:55:43) gamma-only                      
 executed on             LinuxPGI date 2021.04.01  22:37:05
 running on   16 total cores
 distrk:  each k-point on   16 cores,    1 groups
 distr:  one band on NCORE=   8 cores,    2 groups


--------------------------------------------------------------------------------------------------------


 INCAR:
 POTCAR:    PAW_PBE H_h 06Feb2004                 
 POTCAR:    PAW_PBE N_h 06Feb2004                 
 POTCAR:    PAW_PBE O_h 06Feb2004                 
 POTCAR:    PAW_PBE H_h 06Feb2004                 
   VRHFIN =H: ultrasoft test                                                                        
   LEXCH  = PE                                                                                      
   EATOM  =    12.4884 eV,    0.9179 Ry                                                             
                                                                                                    
   TITEL  = PAW_PBE H_h 06Feb2004                                                                   
   LULTRA =        F    use ultrasoft PP ?                                                          
   IUNSCR =        0    unscreen: 0-lin 1-nonlin 2-no                                               
   RPACOR =    0.000    partial core radius                                                         
   POMASS =    1.000; ZVAL   =    1.000    mass and valenz                                          
   RCORE  =    0.800    outmost cutoff radius                                                       
   RWIGS  =    0.700; RWIGS  =    0.370    wigner-seitz radius (au A)                               
   ENMAX  =  700.000; ENMIN  =  350.000 eV                                                          
   RCLOC  =    0.701    cutoff for local pot                                                        
   LCOR   =        T    correct aug charges                                                         
   LPAW   =        T    paw PP                                                                      
   EAUG   = 1000.000                                                                                
   RMAX   =    0.819    core radius for proj-oper                                                   
   RAUG   =    1.000    factor for augmentation sphere                                              
   RDEP   =    0.817    radius for radial grids                                                     
   RDEPT  =    0.817    core radius for aug-charge                                                  
                                                                                                    
   Atomic configuration                                                                             
    2 entries                                                                                       
     n  l   j            E        occ.                                                              
     1  0  0.50        -6.4927   1.0000                                                             
     2  1  0.50        -3.4015   0.0000                                                             
   Description                                                                                      
     l       E           TYP  RCUT    TYP  RCUT                                                     
     0     -6.4927493     23  0.800                                                                 
     0      6.8029130     23  0.800                                                                 
     1     -6.8029130     23  0.800                                                                 
  local pseudopotential read in
  atomic valenz-charges read in
  non local Contribution for L=            0  read in
    real space projection operators read in
  non local Contribution for L=            0  read in
    real space projection operators read in
  non local Contribution for L=            1  read in
    real space projection operators read in
    PAW grid and wavefunctions read in
 
   number of l-projection  operators is LMAX  =            3
   number of lm-projection operators is LMMAX =            5
 
 POTCAR:    PAW_PBE N_h 06Feb2004                 
   VRHFIN =N: s2p3                                                                                  
   LEXCH  = PE                                                                                      
   EATOM  =   264.5486 eV,   19.4438 Ry                                                             
                                                                                                    
   TITEL  = PAW_PBE N_h 06Feb2004                                                                   
   LULTRA =        F    use ultrasoft PP ?                                                          
   IUNSCR =        1    unscreen: 0-lin 1-nonlin 2-no                                               
   RPACOR =    0.800    partial core radius                                                         
   POMASS =   14.001; ZVAL   =    5.000    mass and valenz                                          
   RCORE  =    1.100    outmost cutoff radius                                                       
   RWIGS  =    1.480; RWIGS  =    0.783    wigner-seitz radius (au A)                               
   ENMAX  =  700.000; ENMIN  =  500.000 eV                                                          
   ICORE  =        2    local potential                                                             
   LCOR   =        T    correct aug charges                                                         
   LPAW   =        T    paw PP                                                                      
   EAUG   =  904.640                                                                                
   DEXC   =    0.000                                                                                
   RMAX   =    1.127    core radius for proj-oper                                                   
   RAUG   =    1.300    factor for augmentation sphere                                              
   RDEP   =    1.115    radius for radial grids                                                     
   RDEPT  =    1.106    core radius for aug-charge                                                  
                                                                                                    
   Atomic configuration                                                                             
    4 entries                                                                                       
     n  l   j            E        occ.                                                              
     1  0  0.50      -384.7179   2.0000                                                             
     2  0  0.50       -18.5828   2.0000                                                             
     2  1  0.50        -7.0898   3.0000                                                             
     3  2  1.50        -6.8029   0.0000                                                             
   Description                                                                                      
     l       E           TYP  RCUT    TYP  RCUT                                                     
     0    -18.5828117     23  1.100                                                                 
     0    -15.0750597     23  1.100                                                                 
     1     -7.0897851     23  1.100                                                                 
     1     -1.9663412     23  1.100                                                                 
     2     -6.8029130      7  1.100                                                                 
  local pseudopotential read in
  partial core-charges read in
  partial kinetic energy density read in
  kinetic energy density of atom read in
  atomic valenz-charges read in
  non local Contribution for L=            0  read in
    real space projection operators read in
  non local Contribution for L=            0  read in
    real space projection operators read in
  non local Contribution for L=            1  read in
    real space projection operators read in
  non local Contribution for L=            1  read in
    real space projection operators read in
    PAW grid and wavefunctions read in
 
   number of l-projection  operators is LMAX  =            4
   number of lm-projection operators is LMMAX =            8
 
 POTCAR:    PAW_PBE O_h 06Feb2004                 
   VRHFIN =O: s2p4                                                                                  
   LEXCH  = PE                                                                                      
   EATOM  =   432.3788 eV,   31.7789 Ry                                                             
                                                                                                    
   TITEL  = PAW_PBE O_h 06Feb2004                                                                   
   LULTRA =        F    use ultrasoft PP ?                                                          
   IUNSCR =        1    unscreen: 0-lin 1-nonlin 2-no                                               
   RPACOR =    0.800    partial core radius                                                         
   POMASS =   16.000; ZVAL   =    6.000    mass and valenz                                          
   RCORE  =    1.100    outmost cutoff radius                                                       
   RWIGS  =    1.400; RWIGS  =    0.741    wigner-seitz radius (au A)                               
   ENMAX  =  700.000; ENMIN  =  500.000 eV                                                          
   ICORE  =        2    local potential                                                             
   LCOR   =        T    correct aug charges                                                         
   LPAW   =        T    paw PP                                                                      
   EAUG   =  888.804                                                                                
   DEXC   =    0.000                                                                                
   RMAX   =    1.128    core radius for proj-oper                                                   
   RAUG   =    1.300    factor for augmentation sphere                                              
   RDEP   =    1.125    radius for radial grids                                                     
   RDEPT  =    1.088    core radius for aug-charge                                                  
                                                                                                    
   Atomic configuration                                                                             
    4 entries                                                                                       
     n  l   j            E        occ.                                                              
     1  0  0.50      -514.6923   2.0000                                                             
     2  0  0.50       -23.9615   2.0000                                                             
     2  1  0.50        -9.0305   4.0000                                                             
     3  2  1.50        -9.5241   0.0000                                                             
   Description                                                                                      
     l       E           TYP  RCUT    TYP  RCUT                                                     
     0    -23.9615319     23  1.100                                                                 
     0    -25.3221145     23  1.100                                                                 
     1     -9.0304911     23  1.100                                                                 
     1     -5.4802209     23  1.100                                                                 
     2     -9.5240782      7  1.100                                                                 
  local pseudopotential read in
  partial core-charges read in
  partial kinetic energy density read in
  atomic valenz-charges read in
  non local Contribution for L=            0  read in
    real space projection operators read in
  non local Contribution for L=            0  read in
    real space projection operators read in
  non local Contribution for L=            1  read in
    real space projection operators read in
  non local Contribution for L=            1  read in
    real space projection operators read in
    PAW grid and wavefunctions read in
 
   number of l-projection  operators is LMAX  =            4
   number of lm-projection operators is LMMAX =            8
 
  PAW_PBE H_h 06Feb2004                 :
 energy of atom  1       EATOM=  -12.4884
 kinetic energy error for atom=    0.0001 (will be added to EATOM!!)
  PAW_PBE N_h 06Feb2004                 :
 energy of atom  2       EATOM= -264.5486
 kinetic energy error for atom=    0.0009 (will be added to EATOM!!)
  PAW_PBE O_h 06Feb2004                 :
 energy of atom  3       EATOM= -432.3788
 kinetic energy error for atom=    0.0016 (will be added to EATOM!!)
 
 
 POSCAR:  H  N  O
  positions in cartesian coordinates
  No initial velocities read in
 exchange correlation table for  LEXCH =        8
   RHO(1)=    0.500       N(1)  =     2000
   RHO(2)=  100.500       N(2)  =     4000
 


--------------------------------------------------------------------------------------------------------


 ion  position               nearest neighbor table
   1  0.010  0.001  0.021-   6 1.01
   2  0.999  0.039  0.997-   6 1.01
   3  0.971  0.002  0.997-   6 1.01
   4  0.019  0.183  0.009-   7 0.96
   5  0.984  0.185  0.985-   7 0.96
   6  0.999  0.010  0.996-   3 1.01   2 1.01   1 1.01
   7  0.000  0.167  0.997-   5 0.96   4 0.96
 
  LATTYP: Found a simple cubic cell.
 ALAT       =    35.0000000000
  
  Lattice vectors:
  
 A1 = (  35.0000000000,   0.0000000000,   0.0000000000)
 A2 = (   0.0000000000,  35.0000000000,   0.0000000000)
 A3 = (   0.0000000000,   0.0000000000,  35.0000000000)


Analysis of symmetry for initial positions (statically):
=====================================================================
 Subroutine PRICEL returns:
 Original cell was already a primitive cell.
 

 Routine SETGRP: Setting up the symmetry group for a 
 simple cubic supercell.


 Subroutine GETGRP returns: Found  1 space group operations
 (whereof  1 operations were pure point group operations)
 out of a pool of 48 trial point group operations.


The static configuration has the point symmetry C_1 .


Analysis of symmetry for dynamics (positions and initial velocities):
=====================================================================
 Subroutine PRICEL returns:
 Original cell was already a primitive cell.
 

 Routine SETGRP: Setting up the symmetry group for a 
 simple cubic supercell.


 Subroutine GETGRP returns: Found  1 space group operations
 (whereof  1 operations were pure point group operations)
 out of a pool of 48 trial point group operations.


The dynamic configuration has the point symmetry C_1 .


 Subroutine INISYM returns: Found  1 space group operations
 (whereof  1 operations are pure point group operations),
 and found     1 'primitive' translations


----------------------------------------------------------------------------------------

                                     Primitive cell                                     

  volume of cell :   42875.0000

  direct lattice vectors                    reciprocal lattice vectors
    35.000000000  0.000000000  0.000000000     0.028571429  0.000000000  0.000000000
     0.000000000 35.000000000  0.000000000     0.000000000  0.028571429  0.000000000
     0.000000000  0.000000000 35.000000000     0.000000000  0.000000000  0.028571429

  length of vectors
    35.000000000 35.000000000 35.000000000     0.028571429  0.028571429  0.028571429

  position of ions in fractional coordinates (direct lattice)
     0.010288498  0.000702679  0.020821486
     0.999498008  0.038882065  0.996685848
     0.970673256  0.002458017  0.996686295
     0.019312931  0.183321178  0.009315050
     0.983782053  0.185239963  0.984604577
     0.998586675  0.009985768  0.996060442
     0.000398437  0.167432616  0.997303770

  ion indices of the primitive-cell ions
   primitive index   ion index
                 1           1
                 2           2
                 3           3
                 4           4
                 5           5
                 6           6
                 7           7

----------------------------------------------------------------------------------------

 
 
 KPOINTS: automatic mesh                          

Automatic generation of k-mesh.
Space group operators:
 irot       det(A)        alpha          n_x          n_y          n_z        tau_x        tau_y        tau_z
    1     1.000000     0.000000     1.000000     0.000000     0.000000     0.000000     0.000000     0.000000
 
 Subroutine IBZKPT returns following result:
 ===========================================
 
 Found      1 irreducible k-points:
 
 Following reciprocal coordinates:
            Coordinates               Weight
  0.000000  0.000000  0.000000      1.000000
 
 Following cartesian coordinates:
            Coordinates               Weight
  0.000000  0.000000  0.000000      1.000000
 


--------------------------------------------------------------------------------------------------------




 Dimension of arrays:
   k-points           NKPTS =      1   k-points in BZ     NKDIM =      1   number of bands    NBANDS=     12
   number of dos      NEDOS =    301   number of ions     NIONS =      7
   non local maximal  LDIM  =      4   non local SUM 2l+1 LMDIM =      8
   total plane-waves  NPLWV = ******
   max r-space proj   IRMAX =      1   max aug-charges    IRDMAX=  23028
   dimension x,y,z NGX =   512 NGY =  512 NGZ =  512
   dimension x,y,z NGXF=  1024 NGYF= 1024 NGZF= 1024
   support grid    NGXF=  1024 NGYF= 1024 NGZF= 1024
   ions per type =               5   1   1
   NGX,Y,Z   is equivalent  to a cutoff of  24.32, 24.32, 24.32 a.u.
   NGXF,Y,Z  is equivalent  to a cutoff of  48.64, 48.64, 48.64 a.u.

 SYSTEM =  C                                       
 POSCAR =   H  N  O                                

 Startparameter for this run:
   NWRITE =      2    write-flag & timer
   PREC   = acc       normal or accurate (medium, high low for compatibility)
   ISTART =      0    job   : 0-new  1-cont  2-samecut
   ICHARG =      2    charge: 1-file 2-atom 10-const
   ISPIN  =      1    spin polarized calculation?
   LNONCOLLINEAR =      F non collinear calculations
   LSORBIT =      F    spin-orbit coupling
   INIWAV =      1    electr: 0-lowe 1-rand  2-diag
   LASPH  =      T    aspherical Exc in radial PAW
   METAGGA=      F    non-selfconsistent MetaGGA calc.

 Electronic Relaxation 1
   ENCUT  = 2000.0 eV 147.00 Ry   12.12 a.u. 127.63127.63127.63*2*pi/ulx,y,z
   ENINI  = 2000.0     initial cutoff
   ENAUG  = 1000.0 eV  augmentation charge cutoff
   NELM   =     60;   NELMIN=  2; NELMDL= -5     # of ELM steps 
   EDIFF  = 0.1E-06   stopping-criterion for ELM
   LREAL  =      F    real-space projection
   NLSPLINE    = F    spline interpolate recip. space projectors
   LCOMPAT=      F    compatible to vasp.4.4
   GGA_COMPAT  = T    GGA compatible to vasp.4.4-vasp.4.6
   LMAXPAW     = -100 max onsite density
   LMAXMIX     =    2 max onsite mixed and CHGCAR
   VOSKOWN=      0    Vosko Wilk Nusair interpolation
   ROPT   =    0.00000   0.00000   0.00000
 Ionic relaxation
   EDIFFG = 0.1E-05   stopping-criterion for IOM
   NSW    =      0    number of steps for IOM
   NBLOCK =      1;   KBLOCK =      1    inner block; outer block 
   IBRION =     -1    ionic relax: 0-MD 1-quasi-New 2-CG
   NFREE  =      0    steps in history (QN), initial steepest desc. (CG)
   ISIF   =      2    stress and relaxation
   IWAVPR =     10    prediction:  0-non 1-charg 2-wave 3-comb
   ISYM   =      2    0-nonsym 1-usesym 2-fastsym
   LCORR  =      T    Harris-Foulkes like correction to forces

   POTIM  = 0.5000    time-step for ionic-motion
   TEIN   =    0.0    initial temperature
   TEBEG  =    0.0;   TEEND  =   0.0 temperature during run
   SMASS  =  -3.00    Nose mass-parameter (am)
   estimated Nose-frequenzy (Omega)   =  0.10E-29 period in steps = 0.13E+47 mass=  -0.280E-25a.u.
   SCALEE = 1.0000    scale energy and forces
   NPACO  =    256;   APACO  = 16.0  distance and # of slots for P.C.
   PSTRESS=    0.0 pullay stress

  Mass of Ions in am
   POMASS =   1.00 14.00 16.00
  Ionic Valenz
   ZVAL   =   1.00  5.00  6.00
  Atomic Wigner-Seitz radii
   RWIGS  =  -1.00 -1.00 -1.00
  virtual crystal weights 
   VCA    =   1.00  1.00  1.00
   NELECT =      16.0000    total number of electrons
   NUPDOWN=      -1.0000    fix difference up-down

 DOS related values:
   EMIN   =  10.00;   EMAX   =-10.00  energy-range for DOS
   EFERMI =   0.00
   ISMEAR =     0;   SIGMA  =   0.01  broadening in eV -4-tet -1-fermi 0-gaus

 Electronic relaxation 2 (details)
   IALGO  =     38    algorithm
   LDIAG  =      T    sub-space diagonalisation (order eigenvalues)
   LSUBROT=      F    optimize rotation matrix (better conditioning)
   TURBO    =      0    0=normal 1=particle mesh
   IRESTART =      0    0=no restart 2=restart with 2 vectors
   NREBOOT  =      0    no. of reboots
   NMIN     =      0    reboot dimension
   EREF     =   0.00    reference energy to select bands
   IMIX   =      4    mixing-type and parameters
     AMIX     =   0.40;   BMIX     =  1.00
     AMIX_MAG =   1.60;   BMIX_MAG =  1.00
     AMIN     =   0.10
     WC   =   100.;   INIMIX=   1;  MIXPRE=   1;  MAXMIX= -45

 Intra band minimization:
   WEIMIN = 0.0000     energy-eigenvalue tresh-hold
   EBREAK =  0.21E-08  absolut break condition
   DEPER  =   0.30     relativ break condition  

   TIME   =   0.40     timestep for ELM

  volume/ion in A,a.u.               =    6125.00     41333.54
  Fermi-wavevector in a.u.,A,eV,Ry     =   0.117864  0.222730  0.189010  0.013892
  Thomas-Fermi vector in A             =   0.732055
 
 Write flags
   LWAVE        =      T    write WAVECAR
   LDOWNSAMPLE  =      F    k-point downsampling of WAVECAR
   LCHARG       =      T    write CHGCAR
   LVTOT        =      F    write LOCPOT, total local potential
   LVHAR        =      F    write LOCPOT, Hartree potential only
   LELF         =      F    write electronic localiz. function (ELF)
   LORBIT       =      0    0 simple, 1 ext, 2 COOP (PROOUT), +10 PAW based schemes


 Dipole corrections
   LMONO  =      F    monopole corrections only (constant potential shift)
   LDIPOL =      F    correct potential (dipole corrections)
   IDIPOL =      4    1-x, 2-y, 3-z, 4-all directions 
   EPSILON=  1.0000000 bulk dielectric constant

 Exchange correlation treatment:
   GGA     =    --    GGA type
   LEXCH   =     8    internal setting for exchange type
   VOSKOWN=      0    Vosko Wilk Nusair interpolation
   LHFCALC =     F    Hartree Fock is set to
   LHFONE  =     F    Hartree Fock one center treatment
   AEXX    =    0.0000 exact exchange contribution

 Linear response parameters
   LEPSILON=     F    determine dielectric tensor
   LRPA    =     F    only Hartree local field effects (RPA)
   LNABLA  =     F    use nabla operator in PAW spheres
   LVEL    =     F    velocity operator in full k-point grid
   LINTERFAST=   F  fast interpolation
   KINTER  =     0    interpolate to denser k-point grid
   CSHIFT  =0.1000    complex shift for real part using Kramers Kronig
   OMEGAMAX=  -1.0    maximum frequency
   DEG_THRESHOLD= 0.2000000E-02 threshold for treating states as degnerate
   RTIME   =   -0.100 relaxation time in fs
  (WPLASMAI=    0.000 imaginary part of plasma frequency in eV, 0.658/RTIME)
   DFIELD  = 0.0000000 0.0000000 0.0000000 field for delta impulse in time
 
 Orbital magnetization related:
   ORBITALMAG=     F  switch on orbital magnetization
   LCHIMAG   =     F  perturbation theory with respect to B field
   DQ        =  0.001000  dq finite difference perturbation B field
   LLRAUG    =     F  two centre corrections for induced B field



--------------------------------------------------------------------------------------------------------


 Static calculation
 charge density and potential will be updated during run
 non-spin polarized calculation
 Variant of blocked Davidson
 Davidson routine will perform the subspace rotation
 perform sub-space diagonalisation
    after iterative eigenvector-optimisation
 modified Broyden-mixing scheme, WC =      100.0
 initial mixing is a Kerker type mixing with AMIX =  0.4000 and BMIX =      1.0000
 Hartree-type preconditioning will be used
 using additional bands             4
 reciprocal scheme for non local part
 use partial core corrections
 calculate Harris-corrections to forces 
   (improved forces if not selfconsistent)
 use gradient corrections 
 use of overlap-Matrix (Vanderbilt PP)
 Gauss-broadening in eV      SIGMA  =   0.01


--------------------------------------------------------------------------------------------------------


  energy-cutoff  :     2000.00
  volume of cell :    42875.00
      direct lattice vectors                 reciprocal lattice vectors
    35.000000000  0.000000000  0.000000000     0.028571429  0.000000000  0.000000000
     0.000000000 35.000000000  0.000000000     0.000000000  0.028571429  0.000000000
     0.000000000  0.000000000 35.000000000     0.000000000  0.000000000  0.028571429

  length of vectors
    35.000000000 35.000000000 35.000000000     0.028571429  0.028571429  0.028571429


 
 k-points in units of 2pi/SCALE and weight: automatic mesh                          
   0.00000000  0.00000000  0.00000000       1.000
 
 k-points in reciprocal lattice and weights: automatic mesh                          
   0.00000000  0.00000000  0.00000000       1.000
 
 position of ions in fractional coordinates (direct lattice) 
   0.01028850  0.00070268  0.02082149
   0.99949801  0.03888207  0.99668585
   0.97067326  0.00245802  0.99668630
   0.01931293  0.18332118  0.00931505
   0.98378205  0.18523996  0.98460458
   0.99858668  0.00998577  0.99606044
   0.00039844  0.16743262  0.99730377
 
 position of ions in cartesian coordinates  (Angst):
   0.36009743  0.02459378  0.72875202
  34.98243028  1.36087229 34.88400467
  33.97356397  0.08603060 34.88402033
   0.67595257  6.41624123  0.32602674
  34.43237184  6.48339870 34.46116020
  34.95053363  0.34950188 34.86211549
   0.01394528  5.86014156 34.90563195
 


--------------------------------------------------------------------------------------------------------


 use parallel FFT for orbitals z direction half grid
 k-point   1 :   0.0000 0.0000 0.0000  plane waves: 4353902

 maximum and minimum number of plane-waves per node :    544247   544233

 maximum number of plane-waves:   4353902
 maximum index in each direction: 
   IXMAX=  127   IYMAX=  127   IZMAX=  127
   IXMIN= -127   IYMIN= -127   IZMIN=    0


 parallel 3D FFT for wavefunctions:
    minimum data exchange during FFTs selected (reduces bandwidth)
 parallel 3D FFT for charge:
    minimum data exchange during FFTs selected (reduces bandwidth)


 total amount of memory used by VASP MPI-rank0  7822733. kBytes
=======================================================================

   base      :      30000. kBytes
   nonl-proj :     165447. kBytes
   fftplans  :    2602168. kBytes
   grid      :    4972871. kBytes
   one-center:          1. kBytes
   wavefun   :      52246. kBytes
 
     INWAV:  cpu time    0.0000: real time    0.0000
 Broyden mixing: mesh for mixing (old mesh)
   NGX =255   NGY =255   NGZ =255
  (NGX  =***   NGY  =***   NGZ  =***)
  gives a total of ****** points

 initial charge density was supplied:
 charge density of overlapping atoms calculated
 number of electron      16.0000000 magnetization 
 keeping initial charge density in first step


--------------------------------------------------------------------------------------------------------


 Maximum index for augmentation-charges          1247 (set IRDMAX)


--------------------------------------------------------------------------------------------------------


 First call to EWALD:  gamma=   0.051
 Maximum number of real-space cells 3x 3x 3
 Maximum number of reciprocal cells 3x 3x 3

    FEWALD:  cpu time    0.0007: real time    0.0007


--------------------------------------- Iteration      1(   1)  ---------------------------------------


    POTLOK:  cpu time   47.8880: real time   47.9468
    SETDIJ:  cpu time    0.0681: real time    0.0696
     EDDAV:  cpu time   15.2462: real time   15.2818
       DOS:  cpu time    0.0088: real time    0.0088
    --------------------------------------------
      LOOP:  cpu time   63.2112: real time   63.3070

 eigenvalue-minimisations  :    24
 total energy-change (2. order) : 0.1905413E+03  (-0.2668996E+03)
 number of electron      16.0000000 magnetization 
 augmentation part       16.0000000 magnetization 

 Free energy of the ion-electron system (eV)
  ---------------------------------------------------
  alpha Z        PSCENC =         0.01586818
  Ewald energy   TEWEN  =       446.14374811
  -Hartree energ DENC   =     -1010.71088538
  -exchange      EXHF   =         0.00000000
  -V(xc)+E(xc)   XCENC  =        54.00918658
  PAW double counting   =       558.51391053     -558.42352984
  entropy T*S    EENTRO =        -0.00000000
  eigenvalues    EBANDS =       -58.37354261
  atomic energy  EATOM  =       759.36657541
  Solvation  Ediel_sol  =         0.00000000
  ---------------------------------------------------
  free energy    TOTEN  =       190.54133098 eV

  energy without entropy =      190.54133098  energy(sigma->0) =      190.54133098


--------------------------------------------------------------------------------------------------------




--------------------------------------- Iteration      1(   2)  ---------------------------------------


     EDDAV:  cpu time   18.4395: real time   18.4673
       DOS:  cpu time    0.0073: real time    0.0073
    --------------------------------------------
      LOOP:  cpu time   18.4468: real time   18.4746

 eigenvalue-minimisations  :    32
 total energy-change (2. order) :-0.7837984E+02  (-0.6332227E+02)
 number of electron      16.0000000 magnetization 
 augmentation part       16.0000000 magnetization 

 Free energy of the ion-electron system (eV)
  ---------------------------------------------------
  alpha Z        PSCENC =         0.01586818
  Ewald energy   TEWEN  =       446.14374811
  -Hartree energ DENC   =     -1010.71088538
  -exchange      EXHF   =         0.00000000
  -V(xc)+E(xc)   XCENC  =        54.00918658
  PAW double counting   =       558.51391053     -558.42352984
  entropy T*S    EENTRO =        -0.00000000
  eigenvalues    EBANDS =      -136.75338612
  atomic energy  EATOM  =       759.36657541
  Solvation  Ediel_sol  =         0.00000000
  ---------------------------------------------------
  free energy    TOTEN  =       112.16148747 eV

  energy without entropy =      112.16148747  energy(sigma->0) =      112.16148747


--------------------------------------------------------------------------------------------------------




--------------------------------------- Iteration      1(   3)  ---------------------------------------


     EDDAV:  cpu time   25.1901: real time   25.2330
       DOS:  cpu time    0.0100: real time    0.0100
    --------------------------------------------
      LOOP:  cpu time   25.2001: real time   25.2430

 eigenvalue-minimisations  :    48
 total energy-change (2. order) :-0.1103458E+03  (-0.1096003E+03)
 number of electron      16.0000000 magnetization 
 augmentation part       16.0000000 magnetization 

 Free energy of the ion-electron system (eV)
  ---------------------------------------------------
  alpha Z        PSCENC =         0.01586818
  Ewald energy   TEWEN  =       446.14374811
  -Hartree energ DENC   =     -1010.71088538
  -exchange      EXHF   =         0.00000000
  -V(xc)+E(xc)   XCENC  =        54.00918658
  PAW double counting   =       558.51391053     -558.42352984
  entropy T*S    EENTRO =        -0.00000000
  eigenvalues    EBANDS =      -247.09921223
  atomic energy  EATOM  =       759.36657541
  Solvation  Ediel_sol  =         0.00000000
  ---------------------------------------------------
  free energy    TOTEN  =         1.81566136 eV

  energy without entropy =        1.81566136  energy(sigma->0) =        1.81566136


--------------------------------------------------------------------------------------------------------




--------------------------------------- Iteration      1(   4)  ---------------------------------------


     EDDAV:  cpu time   20.2733: real time   20.3033
       DOS:  cpu time    0.0081: real time    0.0081
    --------------------------------------------
      LOOP:  cpu time   20.2814: real time   20.3114

 eigenvalue-minimisations  :    36
 total energy-change (2. order) :-0.3668316E+02  (-0.3660445E+02)
 number of electron      16.0000000 magnetization 
 augmentation part       16.0000000 magnetization 

 Free energy of the ion-electron system (eV)
  ---------------------------------------------------
  alpha Z        PSCENC =         0.01586818
  Ewald energy   TEWEN  =       446.14374811
  -Hartree energ DENC   =     -1010.71088538
  -exchange      EXHF   =         0.00000000
  -V(xc)+E(xc)   XCENC  =        54.00918658
  PAW double counting   =       558.51391053     -558.42352984
  entropy T*S    EENTRO =        -0.00000000
  eigenvalues    EBANDS =      -283.78237449
  atomic energy  EATOM  =       759.36657541
  Solvation  Ediel_sol  =         0.00000000
  ---------------------------------------------------
  free energy    TOTEN  =       -34.86750090 eV

  energy without entropy =      -34.86750090  energy(sigma->0) =      -34.86750090


--------------------------------------------------------------------------------------------------------




--------------------------------------- Iteration      1(   5)  ---------------------------------------


     EDDAV:  cpu time   18.6261: real time   18.6535
       DOS:  cpu time    0.0096: real time    0.0096
    CHARGE:  cpu time    5.4569: real time    5.4642
    MIXING:  cpu time    1.0056: real time    1.0069
    --------------------------------------------
      LOOP:  cpu time   25.0983: real time   25.1343

 eigenvalue-minimisations  :    32
 total energy-change (2. order) :-0.4128685E+01  (-0.4126551E+01)
 number of electron      16.0000000 magnetization 
 augmentation part        0.1233370 magnetization 

 Broyden mixing:
  rms(total) = 0.20813E+01    rms(broyden)= 0.20813E+01
  rms(prec ) = 0.21055E+01
  weight for this iteration     100.00

 Free energy of the ion-electron system (eV)
  ---------------------------------------------------
  alpha Z        PSCENC =         0.01586818
  Ewald energy   TEWEN  =       446.14374811
  -Hartree energ DENC   =     -1010.71088538
  -exchange      EXHF   =         0.00000000
  -V(xc)+E(xc)   XCENC  =        54.00918658
  PAW double counting   =       558.51391053     -558.42352984
  entropy T*S    EENTRO =        -0.00000000
  eigenvalues    EBANDS =      -287.91105930
  atomic energy  EATOM  =       759.36657541
  Solvation  Ediel_sol  =         0.00000000
  ---------------------------------------------------
  free energy    TOTEN  =       -38.99618571 eV

  energy without entropy =      -38.99618571  energy(sigma->0) =      -38.99618571


--------------------------------------------------------------------------------------------------------




--------------------------------------- Iteration      1(   6)  ---------------------------------------


    POTLOK:  cpu time   47.6338: real time   47.6914
    SETDIJ:  cpu time    0.0722: real time    0.0723
     EDDAV:  cpu time   16.9357: real time   16.9610
       DOS:  cpu time    0.0013: real time    0.0013
    CHARGE:  cpu time    5.1336: real time    5.1406
    MIXING:  cpu time    0.9776: real time    0.9842
    --------------------------------------------
      LOOP:  cpu time   70.7543: real time   70.8509

 eigenvalue-minimisations  :    28
 total energy-change (2. order) : 0.4628200E+01  (-0.1658856E+01)
 number of electron      16.0000000 magnetization 
 augmentation part        0.0620567 magnetization 

 Broyden mixing:
  rms(total) = 0.15957E+01    rms(broyden)= 0.15957E+01
  rms(prec ) = 0.15991E+01
  weight for this iteration     100.00

 eigenvalues of (default mixing * dielectric matrix)
  average eigenvalue GAMMA=   0.9535
  0.9535

 Free energy of the ion-electron system (eV)
  ---------------------------------------------------
  alpha Z        PSCENC =         0.01586818
  Ewald energy   TEWEN  =       446.14374811
  -Hartree energ DENC   =     -1058.40863092
  -exchange      EXHF   =         0.00000000
  -V(xc)+E(xc)   XCENC  =        56.62007868
  PAW double counting   =      1566.53265586    -1566.95065980
  entropy T*S    EENTRO =        -0.00000000
  eigenvalues    EBANDS =      -237.68762158
  atomic energy  EATOM  =       759.36657541
  Solvation  Ediel_sol  =         0.00000000
  ---------------------------------------------------
  free energy    TOTEN  =       -34.36798608 eV

  energy without entropy =      -34.36798608  energy(sigma->0) =      -34.36798608


--------------------------------------------------------------------------------------------------------




--------------------------------------- Iteration      1(   7)  ---------------------------------------


    POTLOK:  cpu time   48.0505: real time   48.1083
    SETDIJ:  cpu time    0.0694: real time    0.0695
     EDDAV:  cpu time   20.2964: real time   20.3266
       DOS:  cpu time    0.0075: real time    0.0075
    CHARGE:  cpu time    5.2301: real time    5.2372
    MIXING:  cpu time    1.3955: real time    1.3970
    --------------------------------------------
      LOOP:  cpu time   75.0494: real time   75.1461

 eigenvalue-minimisations  :    36
 total energy-change (2. order) : 0.2846879E+00  (-0.1290606E+00)
 number of electron      16.0000000 magnetization 
 augmentation part        0.0567770 magnetization 

 Broyden mixing:
  rms(total) = 0.10574E+01    rms(broyden)= 0.10574E+01
  rms(prec ) = 0.10593E+01
  weight for this iteration     100.00

 eigenvalues of (default mixing * dielectric matrix)
  average eigenvalue GAMMA=   1.7569
  0.9846  2.5292

 Free energy of the ion-electron system (eV)
  ---------------------------------------------------
  alpha Z        PSCENC =         0.01586818
  Ewald energy   TEWEN  =       446.14374811
  -Hartree energ DENC   =     -1070.48174317
  -exchange      EXHF   =         0.00000000
  -V(xc)+E(xc)   XCENC  =        57.34748101
  PAW double counting   =      3069.17992302    -3069.60150850
  entropy T*S    EENTRO =        -0.00000000
  eigenvalues    EBANDS =      -226.05364220
  atomic energy  EATOM  =       759.36657541
  Solvation  Ediel_sol  =         0.00000000
  ---------------------------------------------------
  free energy    TOTEN  =       -34.08329814 eV

  energy without entropy =      -34.08329814  energy(sigma->0) =      -34.08329814


--------------------------------------------------------------------------------------------------------




--------------------------------------- Iteration      1(   8)  ---------------------------------------


    POTLOK:  cpu time   48.3229: real time   48.3819
    SETDIJ:  cpu time    0.0791: real time    0.0792
     EDDAV:  cpu time   18.6839: real time   18.7120
       DOS:  cpu time    0.0039: real time    0.0039
    CHARGE:  cpu time    5.8078: real time    5.8148
    MIXING:  cpu time    1.1480: real time    1.1495
    --------------------------------------------
      LOOP:  cpu time   74.0457: real time   74.1413

 eigenvalue-minimisations  :    32
 total energy-change (2. order) : 0.2280724E+00  (-0.2828275E-01)
 number of electron      16.0000000 magnetization 
 augmentation part        0.0623025 magnetization 

 Broyden mixing:
  rms(total) = 0.29835E+00    rms(broyden)= 0.29835E+00
  rms(prec ) = 0.29910E+00
  weight for this iteration     100.00

 eigenvalues of (default mixing * dielectric matrix)
  average eigenvalue GAMMA=   1.3133
  1.9998  0.9700  0.9700

 Free energy of the ion-electron system (eV)
  ---------------------------------------------------
  alpha Z        PSCENC =         0.01586818
  Ewald energy   TEWEN  =       446.14374811
  -Hartree energ DENC   =     -1081.51300192
  -exchange      EXHF   =         0.00000000
  -V(xc)+E(xc)   XCENC  =        58.14319571
  PAW double counting   =      6634.97285889    -6635.29872404
  entropy T*S    EENTRO =        -0.00000000
  eigenvalues    EBANDS =      -215.68574605
  atomic energy  EATOM  =       759.36657541
  Solvation  Ediel_sol  =         0.00000000
  ---------------------------------------------------
  free energy    TOTEN  =       -33.85522572 eV

  energy without entropy =      -33.85522572  energy(sigma->0) =      -33.85522572


--------------------------------------------------------------------------------------------------------




--------------------------------------- Iteration      1(   9)  ---------------------------------------


    POTLOK:  cpu time   48.0543: real time   48.1137
    SETDIJ:  cpu time    0.0763: real time    0.0764
     EDDAV:  cpu time   21.8933: real time   21.9263
       DOS:  cpu time    0.0065: real time    0.0065
    CHARGE:  cpu time    5.3148: real time    5.3220
    MIXING:  cpu time    1.5534: real time    1.5549
    --------------------------------------------
      LOOP:  cpu time   76.8985: real time   76.9997

 eigenvalue-minimisations  :    40
 total energy-change (2. order) :-0.3072485E-02  (-0.4204098E-02)
 number of electron      16.0000000 magnetization 
 augmentation part        0.0586723 magnetization 

 Broyden mixing:
  rms(total) = 0.46894E-01    rms(broyden)= 0.46894E-01
  rms(prec ) = 0.50148E-01
  weight for this iteration     100.00

 eigenvalues of (default mixing * dielectric matrix)
  average eigenvalue GAMMA=   1.3930
  1.8475  1.8475  0.9384  0.9384

 Free energy of the ion-electron system (eV)
  ---------------------------------------------------
  alpha Z        PSCENC =         0.01586818
  Ewald energy   TEWEN  =       446.14374811
  -Hartree energ DENC   =     -1082.09409687
  -exchange      EXHF   =         0.00000000
  -V(xc)+E(xc)   XCENC  =        58.12148780
  PAW double counting   =      5813.40752216    -5813.76560823
  entropy T*S    EENTRO =        -0.00000000
  eigenvalues    EBANDS =      -215.05379474
  atomic energy  EATOM  =       759.36657541
  Solvation  Ediel_sol  =         0.00000000
  ---------------------------------------------------
  free energy    TOTEN  =       -33.85829820 eV

  energy without entropy =      -33.85829820  energy(sigma->0) =      -33.85829820


--------------------------------------------------------------------------------------------------------




--------------------------------------- Iteration      1(  10)  ---------------------------------------


    POTLOK:  cpu time   48.1004: real time   48.1598
    SETDIJ:  cpu time    0.0937: real time    0.0937
     EDDAV:  cpu time   18.5570: real time   18.5848
       DOS:  cpu time    0.0065: real time    0.0065
    CHARGE:  cpu time    5.2715: real time    5.2788
    MIXING:  cpu time    1.6879: real time    1.6896
    --------------------------------------------
      LOOP:  cpu time   73.7170: real time   73.8131

 eigenvalue-minimisations  :    32
 total energy-change (2. order) : 0.4926119E-02  (-0.4593267E-03)
 number of electron      16.0000000 magnetization 
 augmentation part        0.0586341 magnetization 

 Broyden mixing:
  rms(total) = 0.22378E-01    rms(broyden)= 0.22378E-01
  rms(prec ) = 0.25496E-01
  weight for this iteration     100.00

 eigenvalues of (default mixing * dielectric matrix)
  average eigenvalue GAMMA=   1.5686
  2.4469  2.4469  1.0775  0.9358  0.9358

 Free energy of the ion-electron system (eV)
  ---------------------------------------------------
  alpha Z        PSCENC =         0.01586818
  Ewald energy   TEWEN  =       446.14374811
  -Hartree energ DENC   =     -1084.09071079
  -exchange      EXHF   =         0.00000000
  -V(xc)+E(xc)   XCENC  =        58.20891500
  PAW double counting   =      5735.00159887    -5735.35738644
  entropy T*S    EENTRO =        -0.00000000
  eigenvalues    EBANDS =      -213.14198042
  atomic energy  EATOM  =       759.36657541
  Solvation  Ediel_sol  =         0.00000000
  ---------------------------------------------------
  free energy    TOTEN  =       -33.85337209 eV

  energy without entropy =      -33.85337209  energy(sigma->0) =      -33.85337209


--------------------------------------------------------------------------------------------------------




--------------------------------------- Iteration      1(  11)  ---------------------------------------


    POTLOK:  cpu time   48.1786: real time   48.2376
    SETDIJ:  cpu time    0.0797: real time    0.0798
     EDDAV:  cpu time   18.5355: real time   18.5640
       DOS:  cpu time    0.0064: real time    0.0064
    CHARGE:  cpu time    5.3067: real time    5.3139
    MIXING:  cpu time    1.6257: real time    1.6273
    --------------------------------------------
      LOOP:  cpu time   73.7327: real time   73.8290

 eigenvalue-minimisations  :    32
 total energy-change (2. order) :-0.5496387E-03  (-0.5030324E-03)
 number of electron      16.0000000 magnetization 
 augmentation part        0.0580063 magnetization 

 Broyden mixing:
  rms(total) = 0.87022E-02    rms(broyden)= 0.87022E-02
  rms(prec ) = 0.11520E-01
  weight for this iteration     100.00

 eigenvalues of (default mixing * dielectric matrix)
  average eigenvalue GAMMA=   1.6003
  2.6099  2.6099  1.5056  0.8969  0.8969  1.0829

 Free energy of the ion-electron system (eV)
  ---------------------------------------------------
  alpha Z        PSCENC =         0.01586818
  Ewald energy   TEWEN  =       446.14374811
  -Hartree energ DENC   =     -1086.05584682
  -exchange      EXHF   =         0.00000000
  -V(xc)+E(xc)   XCENC  =        58.28362479
  PAW double counting   =      5648.29744818    -5648.65218284
  entropy T*S    EENTRO =        -0.00000000
  eigenvalues    EBANDS =      -211.25315672
  atomic energy  EATOM  =       759.36657541
  Solvation  Ediel_sol  =         0.00000000
  ---------------------------------------------------
  free energy    TOTEN  =       -33.85392172 eV

  energy without entropy =      -33.85392172  energy(sigma->0) =      -33.85392172


--------------------------------------------------------------------------------------------------------




--------------------------------------- Iteration      1(  12)  ---------------------------------------


    POTLOK:  cpu time   48.2363: real time   48.2945
    SETDIJ:  cpu time    0.0740: real time    0.0740
     EDDAV:  cpu time   21.9308: real time   21.9633
       DOS:  cpu time    0.0087: real time    0.0087
    CHARGE:  cpu time    5.3414: real time    5.3489
    MIXING:  cpu time    1.4588: real time    1.4620
    --------------------------------------------
      LOOP:  cpu time   77.0501: real time   77.1514

 eigenvalue-minimisations  :    40
 total energy-change (2. order) :-0.5886697E-02  (-0.1348065E-03)
 number of electron      16.0000000 magnetization 
 augmentation part        0.0582282 magnetization 

 Broyden mixing:
  rms(total) = 0.57123E-02    rms(broyden)= 0.57123E-02
  rms(prec ) = 0.77839E-02
  weight for this iteration     100.00

 eigenvalues of (default mixing * dielectric matrix)
  average eigenvalue GAMMA=   1.6339
  3.2598  2.3428  1.4946  1.4946  1.0486  0.8986  0.8986

 Free energy of the ion-electron system (eV)
  ---------------------------------------------------
  alpha Z        PSCENC =         0.01586818
  Ewald energy   TEWEN  =       446.14374811
  -Hartree energ DENC   =     -1086.62144662
  -exchange      EXHF   =         0.00000000
  -V(xc)+E(xc)   XCENC  =        58.28321504
  PAW double counting   =      5623.06726576    -5623.41805740
  entropy T*S    EENTRO =        -0.00000000
  eigenvalues    EBANDS =      -210.69697689
  atomic energy  EATOM  =       759.36657541
  Solvation  Ediel_sol  =         0.00000000
  ---------------------------------------------------
  free energy    TOTEN  =       -33.85980842 eV

  energy without entropy =      -33.85980842  energy(sigma->0) =      -33.85980842


--------------------------------------------------------------------------------------------------------




--------------------------------------- Iteration      1(  13)  ---------------------------------------


    POTLOK:  cpu time   48.2271: real time   48.2857
    SETDIJ:  cpu time    0.0738: real time    0.0738
     EDDAV:  cpu time   18.7011: real time   18.7290
       DOS:  cpu time    0.0063: real time    0.0063
    CHARGE:  cpu time    5.2563: real time    5.2635
    MIXING:  cpu time    1.2757: real time    1.2774
    --------------------------------------------
      LOOP:  cpu time   73.5403: real time   73.6358

 eigenvalue-minimisations  :    32
 total energy-change (2. order) :-0.5005345E-02  (-0.1113361E-03)
 number of electron      16.0000000 magnetization 
 augmentation part        0.0579114 magnetization 

 Broyden mixing:
  rms(total) = 0.54718E-02    rms(broyden)= 0.54718E-02
  rms(prec ) = 0.64966E-02
  weight for this iteration     100.00

 eigenvalues of (default mixing * dielectric matrix)
  average eigenvalue GAMMA=   1.8125
  4.6438  2.4569  2.4071  1.1030  1.1030  0.9593  0.9593  0.8680

 Free energy of the ion-electron system (eV)
  ---------------------------------------------------
  alpha Z        PSCENC =         0.01586818
  Ewald energy   TEWEN  =       446.14374811
  -Hartree energ DENC   =     -1087.30403779
  -exchange      EXHF   =         0.00000000
  -V(xc)+E(xc)   XCENC  =        58.29585362
  PAW double counting   =      5610.37892918    -5610.73010597
  entropy T*S    EENTRO =        -0.00000000
  eigenvalues    EBANDS =      -210.03164449
  atomic energy  EATOM  =       759.36657541
  Solvation  Ediel_sol  =         0.00000000
  ---------------------------------------------------
  free energy    TOTEN  =       -33.86481377 eV

  energy without entropy =      -33.86481377  energy(sigma->0) =      -33.86481377


--------------------------------------------------------------------------------------------------------




--------------------------------------- Iteration      1(  14)  ---------------------------------------


    POTLOK:  cpu time   48.2769: real time   48.3354
    SETDIJ:  cpu time    0.0569: real time    0.0569
     EDDAV:  cpu time   20.2635: real time   20.2938
       DOS:  cpu time    0.0064: real time    0.0064
    CHARGE:  cpu time    5.3024: real time    5.3098
    MIXING:  cpu time    1.8121: real time    1.8141
    --------------------------------------------
      LOOP:  cpu time   75.7181: real time   75.8164

 eigenvalue-minimisations  :    36
 total energy-change (2. order) :-0.4976819E-02  (-0.1013267E-03)
 number of electron      16.0000000 magnetization 
 augmentation part        0.0579299 magnetization 

 Broyden mixing:
  rms(total) = 0.24384E-02    rms(broyden)= 0.24384E-02
  rms(prec ) = 0.31025E-02
  weight for this iteration     100.00

 eigenvalues of (default mixing * dielectric matrix)
  average eigenvalue GAMMA=   1.8918
  5.2292  2.9327  2.3407  1.4305  1.4305  0.9833  0.9833  0.8865  0.8090

 Free energy of the ion-electron system (eV)
  ---------------------------------------------------
  alpha Z        PSCENC =         0.01586818
  Ewald energy   TEWEN  =       446.14374811
  -Hartree energ DENC   =     -1087.75983869
  -exchange      EXHF   =         0.00000000
  -V(xc)+E(xc)   XCENC  =        58.29524348
  PAW double counting   =      5618.21086166    -5618.56053278
  entropy T*S    EENTRO =        -0.00000000
  eigenvalues    EBANDS =      -209.58171595
  atomic energy  EATOM  =       759.36657541
  Solvation  Ediel_sol  =         0.00000000
  ---------------------------------------------------
  free energy    TOTEN  =       -33.86979058 eV

  energy without entropy =      -33.86979058  energy(sigma->0) =      -33.86979058


--------------------------------------------------------------------------------------------------------




--------------------------------------- Iteration      1(  15)  ---------------------------------------


    POTLOK:  cpu time   48.2197: real time   48.2787
    SETDIJ:  cpu time    0.0720: real time    0.0721
     EDDAV:  cpu time   21.9291: real time   21.9626
       DOS:  cpu time    0.0080: real time    0.0080
    CHARGE:  cpu time    5.3266: real time    5.3344
    MIXING:  cpu time    1.5575: real time    1.5593
    --------------------------------------------
      LOOP:  cpu time   77.1129: real time   77.2151

 eigenvalue-minimisations  :    40
 total energy-change (2. order) :-0.3872351E-02  (-0.4733408E-04)
 number of electron      16.0000000 magnetization 
 augmentation part        0.0578669 magnetization 

 Broyden mixing:
  rms(total) = 0.20829E-02    rms(broyden)= 0.20829E-02
  rms(prec ) = 0.23370E-02
  weight for this iteration     100.00

 eigenvalues of (default mixing * dielectric matrix)
  average eigenvalue GAMMA=   2.0804
  6.5549  3.5179  2.3888  2.3888  1.1510  1.1510  0.9677  0.9677  0.8196  0.8961

 Free energy of the ion-electron system (eV)
  ---------------------------------------------------
  alpha Z        PSCENC =         0.01586818
  Ewald energy   TEWEN  =       446.14374811
  -Hartree energ DENC   =     -1087.88828988
  -exchange      EXHF   =         0.00000000
  -V(xc)+E(xc)   XCENC  =        58.29060461
  PAW double counting   =      5627.86620919    -5628.21617514
  entropy T*S    EENTRO =        -0.00000000
  eigenvalues    EBANDS =      -209.45220341
  atomic energy  EATOM  =       759.36657541
  Solvation  Ediel_sol  =         0.00000000
  ---------------------------------------------------
  free energy    TOTEN  =       -33.87366294 eV

  energy without entropy =      -33.87366294  energy(sigma->0) =      -33.87366294


--------------------------------------------------------------------------------------------------------




--------------------------------------- Iteration      1(  16)  ---------------------------------------


    POTLOK:  cpu time   48.2905: real time   48.3487
    SETDIJ:  cpu time    0.0515: real time    0.0515
     EDDAV:  cpu time   18.7636: real time   18.7922
       DOS:  cpu time    0.0060: real time    0.0060
    CHARGE:  cpu time    5.4301: real time    5.4374
    MIXING:  cpu time    1.3801: real time    1.3820
    --------------------------------------------
      LOOP:  cpu time   73.9218: real time   74.0178

 eigenvalue-minimisations  :    32
 total energy-change (2. order) :-0.2223840E-02  (-0.2436907E-04)
 number of electron      16.0000000 magnetization 
 augmentation part        0.0578448 magnetization 

 Broyden mixing:
  rms(total) = 0.90493E-03    rms(broyden)= 0.90493E-03
  rms(prec ) = 0.10433E-02
  weight for this iteration     100.00

 eigenvalues of (default mixing * dielectric matrix)
  average eigenvalue GAMMA=   2.1623
  7.6388  3.7266  2.6982  2.3079  1.4011  1.1997  1.1997  0.9427  0.9427  0.8638
  0.8638

 Free energy of the ion-electron system (eV)
  ---------------------------------------------------
  alpha Z        PSCENC =         0.01586818
  Ewald energy   TEWEN  =       446.14374811
  -Hartree energ DENC   =     -1087.92675418
  -exchange      EXHF   =         0.00000000
  -V(xc)+E(xc)   XCENC  =        58.28599560
  PAW double counting   =      5618.67094910    -5619.02115018
  entropy T*S    EENTRO =        -0.00000000
  eigenvalues    EBANDS =      -209.41111882
  atomic energy  EATOM  =       759.36657541
  Solvation  Ediel_sol  =         0.00000000
  ---------------------------------------------------
  free energy    TOTEN  =       -33.87588678 eV

  energy without entropy =      -33.87588678  energy(sigma->0) =      -33.87588678


--------------------------------------------------------------------------------------------------------




--------------------------------------- Iteration      1(  17)  ---------------------------------------


    POTLOK:  cpu time   48.3148: real time   48.3735
    SETDIJ:  cpu time    0.0793: real time    0.0794
     EDDAV:  cpu time   21.9016: real time   21.9355
       DOS:  cpu time    0.0112: real time    0.0112
    CHARGE:  cpu time    5.2897: real time    5.2969
    MIXING:  cpu time    1.9055: real time    1.9075
    --------------------------------------------
      LOOP:  cpu time   77.5022: real time   77.6040

 eigenvalue-minimisations  :    40
 total energy-change (2. order) :-0.8164921E-03  (-0.4265312E-05)
 number of electron      16.0000000 magnetization 
 augmentation part        0.0578386 magnetization 

 Broyden mixing:
  rms(total) = 0.55254E-03    rms(broyden)= 0.55254E-03
  rms(prec ) = 0.63109E-03
  weight for this iteration     100.00

 eigenvalues of (default mixing * dielectric matrix)
  average eigenvalue GAMMA=   2.1868
  8.0028  4.1028  2.4441  2.4441  2.3728  1.1606  1.1606  0.9451  0.9451  0.9550
  0.8545  0.8545

 Free energy of the ion-electron system (eV)
  ---------------------------------------------------
  alpha Z        PSCENC =         0.01586818
  Ewald energy   TEWEN  =       446.14374811
  -Hartree energ DENC   =     -1087.95590945
  -exchange      EXHF   =         0.00000000
  -V(xc)+E(xc)   XCENC  =        58.28549641
  PAW double counting   =      5619.60930919    -5619.95939859
  entropy T*S    EENTRO =        -0.00000000
  eigenvalues    EBANDS =      -209.38239251
  atomic energy  EATOM  =       759.36657541
  Solvation  Ediel_sol  =         0.00000000
  ---------------------------------------------------
  free energy    TOTEN  =       -33.87670327 eV

  energy without entropy =      -33.87670327  energy(sigma->0) =      -33.87670327


--------------------------------------------------------------------------------------------------------




--------------------------------------- Iteration      1(  18)  ---------------------------------------


    POTLOK:  cpu time   48.2431: real time   48.3006
    SETDIJ:  cpu time    0.0722: real time    0.0722
     EDDAV:  cpu time   18.7534: real time   18.7816
       DOS:  cpu time    0.0062: real time    0.0062
    CHARGE:  cpu time    5.2958: real time    5.3031
    MIXING:  cpu time    1.5257: real time    1.5277
    --------------------------------------------
      LOOP:  cpu time   73.8963: real time   73.9913

 eigenvalue-minimisations  :    32
 total energy-change (2. order) :-0.4422494E-03  (-0.1281895E-05)
 number of electron      16.0000000 magnetization 
 augmentation part        0.0578429 magnetization 

 Broyden mixing:
  rms(total) = 0.21462E-03    rms(broyden)= 0.21462E-03
  rms(prec ) = 0.27880E-03
  weight for this iteration     100.00

 eigenvalues of (default mixing * dielectric matrix)
  average eigenvalue GAMMA=   2.2509
  8.3638  4.7560  2.9984  2.4364  2.4364  1.3020  1.3020  0.9545  0.9545  1.0596
  0.9732  0.8846  0.8399

 Free energy of the ion-electron system (eV)
  ---------------------------------------------------
  alpha Z        PSCENC =         0.01586818
  Ewald energy   TEWEN  =       446.14374811
  -Hartree energ DENC   =     -1087.94769186
  -exchange      EXHF   =         0.00000000
  -V(xc)+E(xc)   XCENC  =        58.28402773
  PAW double counting   =      5619.92750721    -5620.27747429
  entropy T*S    EENTRO =        -0.00000000
  eigenvalues    EBANDS =      -209.38970599
  atomic energy  EATOM  =       759.36657541
  Solvation  Ediel_sol  =         0.00000000
  ---------------------------------------------------
  free energy    TOTEN  =       -33.87714552 eV

  energy without entropy =      -33.87714552  energy(sigma->0) =      -33.87714552


--------------------------------------------------------------------------------------------------------




--------------------------------------- Iteration      1(  19)  ---------------------------------------


    POTLOK:  cpu time   48.1180: real time   48.1775
    SETDIJ:  cpu time    0.0958: real time    0.0958
     EDDAV:  cpu time   18.6524: real time   18.6801
       DOS:  cpu time    0.0101: real time    0.0101
    CHARGE:  cpu time    5.3218: real time    5.3290
    MIXING:  cpu time    1.9338: real time    1.9360
    --------------------------------------------
      LOOP:  cpu time   74.1318: real time   74.2285

 eigenvalue-minimisations  :    32
 total energy-change (2. order) :-0.2456608E-03  (-0.7069978E-06)
 number of electron      16.0000000 magnetization 
 augmentation part        0.0578434 magnetization 

 Broyden mixing:
  rms(total) = 0.15930E-03    rms(broyden)= 0.15930E-03
  rms(prec ) = 0.18711E-03
  weight for this iteration     100.00

 eigenvalues of (default mixing * dielectric matrix)
  average eigenvalue GAMMA=   2.3063
  8.8640  5.1379  3.5002  2.5340  2.3949  1.8655  1.1349  1.1349  1.0644  1.0644
  0.9376  0.9376  0.8587  0.8587

 Free energy of the ion-electron system (eV)
  ---------------------------------------------------
  alpha Z        PSCENC =         0.01586818
  Ewald energy   TEWEN  =       446.14374811
  -Hartree energ DENC   =     -1087.94606062
  -exchange      EXHF   =         0.00000000
  -V(xc)+E(xc)   XCENC  =        58.28347873
  PAW double counting   =      5619.48763938    -5619.83756847
  entropy T*S    EENTRO =        -0.00000000
  eigenvalues    EBANDS =      -209.39107189
  atomic energy  EATOM  =       759.36657541
  Solvation  Ediel_sol  =         0.00000000
  ---------------------------------------------------
  free energy    TOTEN  =       -33.87739118 eV

  energy without entropy =      -33.87739118  energy(sigma->0) =      -33.87739118


--------------------------------------------------------------------------------------------------------




--------------------------------------- Iteration      1(  20)  ---------------------------------------


    POTLOK:  cpu time   48.0608: real time   48.1200
    SETDIJ:  cpu time    0.0907: real time    0.0907
     EDDAV:  cpu time   21.8968: real time   21.9296
       DOS:  cpu time    0.0080: real time    0.0080
    CHARGE:  cpu time    5.7649: real time    5.7723
    MIXING:  cpu time    1.6170: real time    1.6191
    --------------------------------------------
      LOOP:  cpu time   77.4381: real time   77.5397

 eigenvalue-minimisations  :    40
 total energy-change (2. order) :-0.1179027E-03  (-0.1514359E-06)
 number of electron      16.0000000 magnetization 
 augmentation part        0.0578392 magnetization 

 Broyden mixing:
  rms(total) = 0.10435E-03    rms(broyden)= 0.10435E-03
  rms(prec ) = 0.11607E-03
  weight for this iteration     100.00

 eigenvalues of (default mixing * dielectric matrix)
  average eigenvalue GAMMA=   2.3056
  9.0419  5.5670  3.5924  2.6171  2.2801  2.2801  1.3564  1.1271  1.1271  1.0778
  0.9507  0.9507  0.9193  0.8484  0.8484

 Free energy of the ion-electron system (eV)
  ---------------------------------------------------
  alpha Z        PSCENC =         0.01586818
  Ewald energy   TEWEN  =       446.14374811
  -Hartree energ DENC   =     -1087.95151880
  -exchange      EXHF   =         0.00000000
  -V(xc)+E(xc)   XCENC  =        58.28344782
  PAW double counting   =      5619.44641139    -5619.79635207
  entropy T*S    EENTRO =        -0.00000000
  eigenvalues    EBANDS =      -209.38568910
  atomic energy  EATOM  =       759.36657541
  Solvation  Ediel_sol  =         0.00000000
  ---------------------------------------------------
  free energy    TOTEN  =       -33.87750908 eV

  energy without entropy =      -33.87750908  energy(sigma->0) =      -33.87750908


--------------------------------------------------------------------------------------------------------




--------------------------------------- Iteration      1(  21)  ---------------------------------------


    POTLOK:  cpu time   47.9192: real time   47.9772
    SETDIJ:  cpu time    0.0740: real time    0.0741
     EDDAV:  cpu time   15.3317: real time   15.3558
       DOS:  cpu time    0.0063: real time    0.0063
    CHARGE:  cpu time    5.2816: real time    5.2888
    MIXING:  cpu time    1.7229: real time    1.7253
    --------------------------------------------
      LOOP:  cpu time   70.3357: real time   70.4276

 eigenvalue-minimisations  :    24
 total energy-change (2. order) :-0.4186612E-04  (-0.1637627E-07)
 number of electron      16.0000000 magnetization 
 augmentation part        0.0578392 magnetization 

 Broyden mixing:
  rms(total) = 0.62912E-04    rms(broyden)= 0.62912E-04
  rms(prec ) = 0.71023E-04
  weight for this iteration     100.00

 eigenvalues of (default mixing * dielectric matrix)
  average eigenvalue GAMMA=   2.3958
  9.2257  5.9559  3.9645  3.0123  2.4318  2.4318  2.0763  1.2916  1.1429  1.1429
  1.0918  0.9418  0.9418  0.8567  0.8567  0.9688

 Free energy of the ion-electron system (eV)
  ---------------------------------------------------
  alpha Z        PSCENC =         0.01586818
  Ewald energy   TEWEN  =       446.14374811
  -Hartree energ DENC   =     -1087.95228603
  -exchange      EXHF   =         0.00000000
  -V(xc)+E(xc)   XCENC  =        58.28341378
  PAW double counting   =      5619.43483890    -5619.78479434
  entropy T*S    EENTRO =        -0.00000000
  eigenvalues    EBANDS =      -209.38491494
  atomic energy  EATOM  =       759.36657541
  Solvation  Ediel_sol  =         0.00000000
  ---------------------------------------------------
  free energy    TOTEN  =       -33.87755095 eV

  energy without entropy =      -33.87755095  energy(sigma->0) =      -33.87755095


--------------------------------------------------------------------------------------------------------




--------------------------------------- Iteration      1(  22)  ---------------------------------------


    POTLOK:  cpu time   48.0965: real time   48.1545
    SETDIJ:  cpu time    0.1019: real time    0.1019
     EDDAV:  cpu time   15.3229: real time   15.3464
       DOS:  cpu time    0.0067: real time    0.0067
    CHARGE:  cpu time    5.5261: real time    5.5333
    MIXING:  cpu time    1.7811: real time    1.7837
    --------------------------------------------
      LOOP:  cpu time   70.8352: real time   70.9265

 eigenvalue-minimisations  :    24
 total energy-change (2. order) :-0.3872977E-04  (-0.2689063E-07)
 number of electron      16.0000000 magnetization 
 augmentation part        0.0578394 magnetization 

 Broyden mixing:
  rms(total) = 0.27095E-04    rms(broyden)= 0.27095E-04
  rms(prec ) = 0.30418E-04
  weight for this iteration     100.00

 eigenvalues of (default mixing * dielectric matrix)
  average eigenvalue GAMMA=   2.3686
  9.3707  6.4218  4.2912  3.1650  2.4280  2.4280  1.7942  1.5906  1.1474  1.1474
  1.0287  0.8535  0.8535  0.9260  0.9260  0.9466  0.9466

 Free energy of the ion-electron system (eV)
  ---------------------------------------------------
  alpha Z        PSCENC =         0.01586818
  Ewald energy   TEWEN  =       446.14374811
  -Hartree energ DENC   =     -1087.95384728
  -exchange      EXHF   =         0.00000000
  -V(xc)+E(xc)   XCENC  =        58.28342164
  PAW double counting   =      5619.47775601    -5619.82772367
  entropy T*S    EENTRO =        -0.00000000
  eigenvalues    EBANDS =      -209.38338807
  atomic energy  EATOM  =       759.36657541
  Solvation  Ediel_sol  =         0.00000000
  ---------------------------------------------------
  free energy    TOTEN  =       -33.87758968 eV

  energy without entropy =      -33.87758968  energy(sigma->0) =      -33.87758968


--------------------------------------------------------------------------------------------------------




--------------------------------------- Iteration      1(  23)  ---------------------------------------


    POTLOK:  cpu time   48.1561: real time   48.2139
    SETDIJ:  cpu time    0.0877: real time    0.0878
     EDDAV:  cpu time   15.2531: real time   15.2764
       DOS:  cpu time    0.0067: real time    0.0067
    CHARGE:  cpu time    5.2547: real time    5.2618
    MIXING:  cpu time    2.1031: real time    2.1058
    --------------------------------------------
      LOOP:  cpu time   70.8615: real time   70.9524

 eigenvalue-minimisations  :    24
 total energy-change (2. order) :-0.5308511E-05  (-0.2800848E-08)
 number of electron      16.0000000 magnetization 
 augmentation part        0.0578392 magnetization 

 Broyden mixing:
  rms(total) = 0.20865E-04    rms(broyden)= 0.20865E-04
  rms(prec ) = 0.23309E-04
  weight for this iteration     100.00

 eigenvalues of (default mixing * dielectric matrix)
  average eigenvalue GAMMA=   2.3837
  9.5119  6.6469  4.5449  3.1515  2.6142  2.2157  2.2157  1.5945  1.5945  1.1243
  1.1243  1.0350  1.0350  0.9292  0.9292  0.8579  0.8579  0.9236

 Free energy of the ion-electron system (eV)
  ---------------------------------------------------
  alpha Z        PSCENC =         0.01586818
  Ewald energy   TEWEN  =       446.14374811
  -Hartree energ DENC   =     -1087.95395503
  -exchange      EXHF   =         0.00000000
  -V(xc)+E(xc)   XCENC  =        58.28341580
  PAW double counting   =      5619.49549944    -5619.84546613
  entropy T*S    EENTRO =        -0.00000000
  eigenvalues    EBANDS =      -209.38328076
  atomic energy  EATOM  =       759.36657541
  Solvation  Ediel_sol  =         0.00000000
  ---------------------------------------------------
  free energy    TOTEN  =       -33.87759499 eV

  energy without entropy =      -33.87759499  energy(sigma->0) =      -33.87759499


--------------------------------------------------------------------------------------------------------




--------------------------------------- Iteration      1(  24)  ---------------------------------------


    POTLOK:  cpu time   48.1499: real time   48.2081
    SETDIJ:  cpu time    0.0503: real time    0.0503
     EDDAV:  cpu time   11.9039: real time   11.9216
       DOS:  cpu time    0.0077: real time    0.0077
    CHARGE:  cpu time    5.0296: real time    5.0365
    MIXING:  cpu time    2.5242: real time    2.5271
    --------------------------------------------
      LOOP:  cpu time   67.6655: real time   67.7512

 eigenvalue-minimisations  :    16
 total energy-change (2. order) :-0.7462405E-05  (-0.3292620E-08)
 number of electron      16.0000000 magnetization 
 augmentation part        0.0578394 magnetization 

 Broyden mixing:
  rms(total) = 0.11522E-04    rms(broyden)= 0.11522E-04
  rms(prec ) = 0.12893E-04
  weight for this iteration     100.00

 eigenvalues of (default mixing * dielectric matrix)
  average eigenvalue GAMMA=   2.4314
  9.5682  7.0747  5.0210  3.7646  2.8795  2.4171  2.4171  1.6584  1.6584  1.1736
  1.1736  1.0173  1.0173  0.9372  0.9372  0.9107  0.8622  0.8622  0.8457

 Free energy of the ion-electron system (eV)
  ---------------------------------------------------
  alpha Z        PSCENC =         0.01586818
  Ewald energy   TEWEN  =       446.14374811
  -Hartree energ DENC   =     -1087.95388728
  -exchange      EXHF   =         0.00000000
  -V(xc)+E(xc)   XCENC  =        58.28339987
  PAW double counting   =      5619.48222341    -5619.83218363
  entropy T*S    EENTRO =        -0.00000000
  eigenvalues    EBANDS =      -209.38334650
  atomic energy  EATOM  =       759.36657541
  Solvation  Ediel_sol  =         0.00000000
  ---------------------------------------------------
  free energy    TOTEN  =       -33.87760245 eV

  energy without entropy =      -33.87760245  energy(sigma->0) =      -33.87760245


--------------------------------------------------------------------------------------------------------




--------------------------------------- Iteration      1(  25)  ---------------------------------------


    POTLOK:  cpu time   48.1845: real time   48.2422
    SETDIJ:  cpu time    0.0731: real time    0.0731
     EDDAV:  cpu time   11.8945: real time   11.9122
       DOS:  cpu time    0.0055: real time    0.0055
    CHARGE:  cpu time    5.0220: real time    5.0289
    MIXING:  cpu time    2.4831: real time    2.4861
    --------------------------------------------
      LOOP:  cpu time   67.6626: real time   67.7479

 eigenvalue-minimisations  :    16
 total energy-change (2. order) :-0.3332762E-05  (-0.3749271E-08)
 number of electron      16.0000000 magnetization 
 augmentation part        0.0578396 magnetization 

 Broyden mixing:
  rms(total) = 0.86640E-05    rms(broyden)= 0.86640E-05
  rms(prec ) = 0.92183E-05
  weight for this iteration     100.00

 eigenvalues of (default mixing * dielectric matrix)
  average eigenvalue GAMMA=   2.4203
  9.6126  7.2591  5.2516  3.8646  3.0209  2.5224  2.3451  1.7121  1.7121  1.3080
  1.3080  1.0647  1.0647  1.0246  0.9375  0.9375  0.8868  0.8868  0.8608  0.8254

 Free energy of the ion-electron system (eV)
  ---------------------------------------------------
  alpha Z        PSCENC =         0.01586818
  Ewald energy   TEWEN  =       446.14374811
  -Hartree energ DENC   =     -1087.95375942
  -exchange      EXHF   =         0.00000000
  -V(xc)+E(xc)   XCENC  =        58.28339066
  PAW double counting   =      5619.49770287    -5619.84766162
  entropy T*S    EENTRO =        -0.00000000
  eigenvalues    EBANDS =      -209.38346997
  atomic energy  EATOM  =       759.36657541
  Solvation  Ediel_sol  =         0.00000000
  ---------------------------------------------------
  free energy    TOTEN  =       -33.87760578 eV

  energy without entropy =      -33.87760578  energy(sigma->0) =      -33.87760578


--------------------------------------------------------------------------------------------------------




--------------------------------------- Iteration      1(  26)  ---------------------------------------


    POTLOK:  cpu time   48.1571: real time   48.2154
    SETDIJ:  cpu time    0.0558: real time    0.0558
     EDDAV:  cpu time   15.1569: real time   15.1796
       DOS:  cpu time    0.0063: real time    0.0063
    CHARGE:  cpu time    5.2875: real time    5.2947
    MIXING:  cpu time    2.2345: real time    2.2376
    --------------------------------------------
      LOOP:  cpu time   70.8981: real time   70.9895

 eigenvalue-minimisations  :    24
 total energy-change (2. order) :-0.1273022E-05  (-0.2127299E-08)
 number of electron      16.0000000 magnetization 
 augmentation part        0.0578396 magnetization 

 Broyden mixing:
  rms(total) = 0.49488E-05    rms(broyden)= 0.49488E-05
  rms(prec ) = 0.52855E-05
  weight for this iteration     100.00

 eigenvalues of (default mixing * dielectric matrix)
  average eigenvalue GAMMA=   2.4135
  9.6469  7.3654  5.4881  3.8992  3.1640  2.6285  2.2930  2.2930  1.6019  1.6019
  1.1721  1.1721  1.0797  1.0797  0.9433  0.9433  0.8981  0.8981  0.8539  0.8539
  0.8074

 Free energy of the ion-electron system (eV)
  ---------------------------------------------------
  alpha Z        PSCENC =         0.01586818
  Ewald energy   TEWEN  =       446.14374811
  -Hartree energ DENC   =     -1087.95391267
  -exchange      EXHF   =         0.00000000
  -V(xc)+E(xc)   XCENC  =        58.28339560
  PAW double counting   =      5619.48521329    -5619.83517336
  entropy T*S    EENTRO =        -0.00000000
  eigenvalues    EBANDS =      -209.38332160
  atomic energy  EATOM  =       759.36657541
  Solvation  Ediel_sol  =         0.00000000
  ---------------------------------------------------
  free energy    TOTEN  =       -33.87760705 eV

  energy without entropy =      -33.87760705  energy(sigma->0) =      -33.87760705


--------------------------------------------------------------------------------------------------------




--------------------------------------- Iteration      1(  27)  ---------------------------------------


    POTLOK:  cpu time   48.0353: real time   48.0929
    SETDIJ:  cpu time    0.0729: real time    0.0729
     EDDAV:  cpu time   11.8979: real time   11.9155
       DOS:  cpu time    0.0063: real time    0.0063
    CHARGE:  cpu time    5.2430: real time    5.2500
    MIXING:  cpu time    2.6191: real time    2.6224
    --------------------------------------------
      LOOP:  cpu time   67.8745: real time   67.9601

 eigenvalue-minimisations  :    16
 total energy-change (2. order) :-0.7230576E-06  (-0.1626674E-08)
 number of electron      16.0000000 magnetization 
 augmentation part        0.0578395 magnetization 

 Broyden mixing:
  rms(total) = 0.52969E-05    rms(broyden)= 0.52969E-05
  rms(prec ) = 0.54571E-05
  weight for this iteration     100.00

 eigenvalues of (default mixing * dielectric matrix)
  average eigenvalue GAMMA=   2.3985
  9.6604  7.5498  5.6112  4.1381  3.2076  2.6378  2.4028  2.4028  1.6313  1.6313
  1.2420  1.2420  1.0721  1.0721  0.9818  0.9818  0.9195  0.9195  0.9650  0.8590
  0.8590  0.7794

 Free energy of the ion-electron system (eV)
  ---------------------------------------------------
  alpha Z        PSCENC =         0.01586818
  Ewald energy   TEWEN  =       446.14374811
  -Hartree energ DENC   =     -1087.95401182
  -exchange      EXHF   =         0.00000000
  -V(xc)+E(xc)   XCENC  =        58.28340022
  PAW double counting   =      5619.48377044    -5619.83373193
  entropy T*S    EENTRO =        -0.00000000
  eigenvalues    EBANDS =      -209.38322637
  atomic energy  EATOM  =       759.36657541
  Solvation  Ediel_sol  =         0.00000000
  ---------------------------------------------------
  free energy    TOTEN  =       -33.87760778 eV

  energy without entropy =      -33.87760778  energy(sigma->0) =      -33.87760778


--------------------------------------------------------------------------------------------------------




--------------------------------------- Iteration      1(  28)  ---------------------------------------


    POTLOK:  cpu time   47.9386: real time   47.9956
    SETDIJ:  cpu time    0.0731: real time    0.0732
     EDDAV:  cpu time   15.1591: real time   15.1815
       DOS:  cpu time    0.0065: real time    0.0065
    CHARGE:  cpu time    5.1638: real time    5.1710
    MIXING:  cpu time    2.5771: real time    2.5805
    --------------------------------------------
      LOOP:  cpu time   70.9182: real time   71.0082

 eigenvalue-minimisations  :    24
 total energy-change (2. order) :-0.2503327E-06  (-0.1271603E-08)
 number of electron      16.0000000 magnetization 
 augmentation part        0.0578395 magnetization 

 Broyden mixing:
  rms(total) = 0.27529E-05    rms(broyden)= 0.27529E-05
  rms(prec ) = 0.28808E-05
  weight for this iteration     100.00

 eigenvalues of (default mixing * dielectric matrix)
  average eigenvalue GAMMA=   2.4121
  9.7238  7.6518  5.8361  4.3312  3.4014  2.8540  2.3219  2.3219  1.8642  1.8642
  1.3945  1.3945  1.1360  1.1360  1.0501  1.0501  0.9355  0.9355  0.8570  0.8570
  0.9066  0.9066  0.7475

 Free energy of the ion-electron system (eV)
  ---------------------------------------------------
  alpha Z        PSCENC =         0.01586818
  Ewald energy   TEWEN  =       446.14374811
  -Hartree energ DENC   =     -1087.95394779
  -exchange      EXHF   =         0.00000000
  -V(xc)+E(xc)   XCENC  =        58.28339809
  PAW double counting   =      5619.49030916    -5619.84027043
  entropy T*S    EENTRO =        -0.00000000
  eigenvalues    EBANDS =      -209.38328874
  atomic energy  EATOM  =       759.36657541
  Solvation  Ediel_sol  =         0.00000000
  ---------------------------------------------------
  free energy    TOTEN  =       -33.87760803 eV

  energy without entropy =      -33.87760803  energy(sigma->0) =      -33.87760803


--------------------------------------------------------------------------------------------------------




--------------------------------------- Iteration      1(  29)  ---------------------------------------


    POTLOK:  cpu time   47.8484: real time   47.9055
    SETDIJ:  cpu time    0.0559: real time    0.0559
     EDDAV:  cpu time   11.8969: real time   11.9145
       DOS:  cpu time    0.0088: real time    0.0088
    CHARGE:  cpu time    5.0393: real time    5.0461
    MIXING:  cpu time    2.4866: real time    2.4902
    --------------------------------------------
      LOOP:  cpu time   67.3358: real time   67.4210

 eigenvalue-minimisations  :    16
 total energy-change (2. order) :-0.2279487E-06  (-0.1113284E-08)
 number of electron      16.0000000 magnetization 
 augmentation part        0.0578395 magnetization 

 Broyden mixing:
  rms(total) = 0.10430E-05    rms(broyden)= 0.10430E-05
  rms(prec ) = 0.11396E-05
  weight for this iteration     100.00

 eigenvalues of (default mixing * dielectric matrix)
  average eigenvalue GAMMA=   2.3918
  9.7018  7.9138  5.9802  4.5938  3.4876  2.9839  2.4130  2.4130  1.9949  1.6267
  1.4999  1.4999  1.1363  1.1363  1.1327  0.9932  0.9280  0.9280  0.9462  0.9462
  0.8589  0.8589  0.7876  0.6431

 Free energy of the ion-electron system (eV)
  ---------------------------------------------------
  alpha Z        PSCENC =         0.01586818
  Ewald energy   TEWEN  =       446.14374811
  -Hartree energ DENC   =     -1087.95387455
  -exchange      EXHF   =         0.00000000
  -V(xc)+E(xc)   XCENC  =        58.28339439
  PAW double counting   =      5619.49472735    -5619.84468811
  entropy T*S    EENTRO =        -0.00000000
  eigenvalues    EBANDS =      -209.38335902
  atomic energy  EATOM  =       759.36657541
  Solvation  Ediel_sol  =         0.00000000
  ---------------------------------------------------
  free energy    TOTEN  =       -33.87760825 eV

  energy without entropy =      -33.87760825  energy(sigma->0) =      -33.87760825


--------------------------------------------------------------------------------------------------------




--------------------------------------- Iteration      1(  30)  ---------------------------------------


    POTLOK:  cpu time   48.0017: real time   48.0605
    SETDIJ:  cpu time    0.0846: real time    0.0847
     EDDAV:  cpu time   15.1937: real time   15.2166
       DOS:  cpu time    0.0058: real time    0.0058
    --------------------------------------------
      LOOP:  cpu time   63.2858: real time   63.3675

 eigenvalue-minimisations  :    24
 total energy-change (2. order) :-0.6943014E-07  (-0.1007981E-08)
 number of electron      16.0000000 magnetization 
 augmentation part        0.0578395 magnetization 

 Free energy of the ion-electron system (eV)
  ---------------------------------------------------
  alpha Z        PSCENC =         0.01586818
  Ewald energy   TEWEN  =       446.14374811
  -Hartree energ DENC   =     -1087.95387301
  -exchange      EXHF   =         0.00000000
  -V(xc)+E(xc)   XCENC  =        58.28339471
  PAW double counting   =      5619.49417403    -5619.84413494
  entropy T*S    EENTRO =        -0.00000000
  eigenvalues    EBANDS =      -209.38336080
  atomic energy  EATOM  =       759.36657541
  Solvation  Ediel_sol  =         0.00000000
  ---------------------------------------------------
  free energy    TOTEN  =       -33.87760832 eV

  energy without entropy =      -33.87760832  energy(sigma->0) =      -33.87760832


--------------------------------------------------------------------------------------------------------




 average (electrostatic) potential at core
  the test charge radii are     0.4325  0.5902  0.5955
  (the norm of the test charge is              1.0000)
       1 -46.0252       2 -45.9849       3 -46.0246       4 -47.7504       5 -47.7499
       6-102.7282       7-119.6802
 
 
 
 E-fermi :  -5.9117     XC(G=0):  -0.0370     alpha+bet : -0.0072


 k-point     1 :       0.0000    0.0000    0.0000
  band No.  band energies     occupation 
      1     -25.4398      2.00000
      2     -21.0311      2.00000
      3     -13.2192      2.00000
      4     -11.1389      2.00000
      5     -11.1241      2.00000
      6      -9.4281      2.00000
      7      -7.3138      2.00000
      8      -5.9967      2.00000
      9      -1.0354      0.00000
     10      -0.5374      0.00000
     11      -0.0001      0.00000
     12       0.0899      0.00000


--------------------------------------------------------------------------------------------------------


 soft charge-density along one line, spin component            1
         0         1         2         3         4         5         6         7         8         9
 total charge-density along one line
 
 pseudopotential strength for first ion, spin component:            1
 -2.529  -5.376  -0.003   0.006   0.003
 -5.376 -11.404  -0.006   0.015   0.008
 -0.003  -0.006  -1.393  -0.005  -0.003
  0.006   0.015  -0.005  -1.382   0.007
  0.003   0.008  -0.003   0.007  -1.392
 total augmentation occupancy for first ion, spin component:            1
  3.898  -0.648   0.099  -0.256  -0.125
 -0.648   0.126  -0.016   0.044   0.020
  0.099  -0.016   0.007  -0.004  -0.004
 -0.256   0.044  -0.004   0.020   0.005
 -0.125   0.020  -0.004   0.005   0.009


------------------------ aborting loop because EDIFF is reached ----------------------------------------



 DIPCOR: dipole corrections for dipol
 direction  1 min pos   484, direction  2 min pos   504, direction  3 min pos   518,
 dipolmoment           0.117420     -0.501542     -0.235337 electrons x Angstroem
 Tr[quadrupol]         2.532890

 energy correction for charged system         0.000000 eV
 dipol+quadrupol energy correction            0.000226 eV
 added-field ion interaction          0.000000 eV  (added to PSCEN)

 
  *************** adding dipol energy to TOTEN NOW **************** 
    CHARGE:  cpu time    5.2011: real time    5.2083
    FORLOC:  cpu time    3.3690: real time    3.3718
    FORNL :  cpu time    0.8152: real time    0.8165
    STRESS:  cpu time    9.9662: real time    9.9806
    FORCOR:  cpu time   46.4133: real time   46.4683
    FORHAR:  cpu time   14.5748: real time   14.5918
    MIXING:  cpu time    2.4053: real time    2.4089
    OFIELD:  cpu time    0.0000: real time    0.0000

  FORCE on cell =-STRESS in cart. coord.  units (eV):
  Direction    XX          YY          ZZ          XY          YZ          ZX
  --------------------------------------------------------------------------------------
  Alpha Z     0.01587     0.01587     0.01587
  Ewald     120.85664   278.70406    46.58306    17.06526   -28.41311    85.26633
  Hartree   314.06313   473.42843   300.46231     5.69811    -5.98940    15.41087
  E(xc)     -69.01300   -69.02394   -69.34130     0.05930    -0.11655     0.38016
  Local    -672.19055  -991.11269  -607.75477   -18.57599    26.06675   -73.55385
  n-local   -36.11049   -36.80675   -39.63864     0.64777    -1.32200     4.03068
  augment     0.62376     0.64879     0.94873    -0.02853     0.06919    -0.40953
  Kinetic   342.50538   344.79742   369.16157    -4.81582     9.59572   -30.76283
  Fock        0.00000     0.00000     0.00000     0.00000     0.00000     0.00000
  -------------------------------------------------------------------------------------
  Total       0.75073     0.65119     0.43682     0.05010    -0.10940     0.36183
  in kB       0.02805     0.02433     0.01632     0.00187    -0.00409     0.01352
  external pressure =        0.02 kB  Pullay stress =        0.00 kB


 VOLUME and BASIS-vectors are now :
 -----------------------------------------------------------------------------
  energy-cutoff  :     2000.00
  volume of cell :    42875.00
      direct lattice vectors                 reciprocal lattice vectors
    35.000000000  0.000000000  0.000000000     0.028571429  0.000000000  0.000000000
     0.000000000 35.000000000  0.000000000     0.000000000  0.028571429  0.000000000
     0.000000000  0.000000000 35.000000000     0.000000000  0.000000000  0.028571429

  length of vectors
    35.000000000 35.000000000 35.000000000     0.028571429  0.028571429  0.028571429


 FORCES acting on ions
    electron-ion (+dipol)            ewald-force                    non-local-force                 convergence-correction
 -----------------------------------------------------------------------------------------------
   -.313E+02 0.277E+02 -.598E+02   0.345E+02 -.303E+02 0.663E+02   -.311E+01 0.246E+01 -.615E+01   0.722E-06 0.146E-06 0.276E-05
   -.393E+01 -.660E+02 0.132E+01   0.428E+01 0.737E+02 -.134E+01   -.344E+00 -.734E+01 0.263E-01   -.258E-06 0.329E-05 0.682E-06
   0.690E+02 0.233E+02 0.130E+01   -.764E+02 -.254E+02 -.132E+01   0.704E+01 0.201E+01 0.269E-01   -.287E-05 0.259E-06 0.647E-06
   -.636E+02 -.519E+02 -.406E+02   0.699E+02 0.568E+02 0.446E+02   -.605E+01 -.475E+01 -.386E+01   -.617E-06 -.115E-05 -.546E-06
   0.563E+02 -.583E+02 0.428E+02   -.619E+02 0.639E+02 -.470E+02   0.536E+01 -.537E+01 0.407E+01   0.624E-06 -.122E-05 0.359E-06
   -.218E+02 0.353E+02 0.377E+02   0.370E+02 -.470E+02 -.634E+02   -.149E+02 0.116E+02 0.253E+02   -.372E-05 0.797E-05 0.759E-05
   0.382E+01 0.397E+02 -.113E+01   -.734E+01 -.917E+02 0.214E+01   0.348E+01 0.514E+02 -.999E+00   -.137E-06 -.620E-05 -.606E-06
 -----------------------------------------------------------------------------------------------
   0.854E+01 -.501E+02 -.185E+02   -.160E-13 0.284E-13 -.711E-14   -.854E+01 0.501E+02 0.185E+02   -.626E-05 0.309E-05 0.109E-04
 
 
 POSITION                                       TOTAL-FORCE (eV/Angst)
 -----------------------------------------------------------------------------------
      0.36010      0.02459      0.72875         0.146747     -0.112338      0.313851
     34.98243      1.36087     34.88400         0.008758      0.380755      0.006389
     33.97356      0.08603     34.88402        -0.352716     -0.086697      0.009346
      0.67595      6.41624      0.32603         0.297072      0.210777      0.188125
     34.43237      6.48340     34.46116        -0.263859      0.240067     -0.202060
     34.95053      0.34950     34.86212         0.198056     -0.171743     -0.331343
      0.01395      5.86014     34.90563        -0.034057     -0.460821      0.015692
 -----------------------------------------------------------------------------------
    total drift:                               -0.000005     -0.000006     -0.000030


--------------------------------------------------------------------------------------------------------



  FREE ENERGIE OF THE ION-ELECTRON SYSTEM (eV)
  ---------------------------------------------------
  free  energy   TOTEN  =       -33.87738273 eV

  energy  without entropy=      -33.87738273  energy(sigma->0) =      -33.87738273
 


--------------------------------------------------------------------------------------------------------


    POTLOK:  cpu time   47.7590: real time   47.8172


--------------------------------------------------------------------------------------------------------


 writing wavefunctions
     LOOP+:  cpu time 3001.0078: real time 3004.2190
    4ORBIT:  cpu time    0.0000: real time    0.0000

 total amount of memory used by VASP MPI-rank0  7822733. kBytes
=======================================================================

   base      :      30000. kBytes
   nonl-proj :     165447. kBytes
   fftplans  :    2602168. kBytes
   grid      :    4972871. kBytes
   one-center:          1. kBytes
   wavefun   :      52246. kBytes
 
  
  
 General timing and accounting informations for this job:
 ========================================================
  
                  Total CPU time used (sec):     4064.751
                            User time (sec):     3899.090
                          System time (sec):      165.662
                         Elapsed time (sec):     4069.773
  
                   Maximum memory used (kb):    10334424.
                   Average memory used (kb):           0.
  
                          Minor page faults:    154882353
                          Major page faults:          126
                 Voluntary context switches:         3586
