 vasp.6.1.2 22Jul20 (build Jan  6 2021 09:55:43) gamma-only                      
 executed on             LinuxPGI date 2021.04.01  22:53:19
 running on   16 total cores
 distrk:  each k-point on   16 cores,    1 groups
 distr:  one band on NCORE=   8 cores,    2 groups


--------------------------------------------------------------------------------------------------------


 INCAR:
 POTCAR:    PAW_PBE H_h 06Feb2004                 
 POTCAR:    PAW_PBE N_h 06Feb2004                 
 POTCAR:    PAW_PBE O_h 06Feb2004                 
 POTCAR:    PAW_PBE H_h 06Feb2004                 
   VRHFIN =H: ultrasoft test                                                                        
   LEXCH  = PE                                                                                      
   EATOM  =    12.4884 eV,    0.9179 Ry                                                             
                                                                                                    
   TITEL  = PAW_PBE H_h 06Feb2004                                                                   
   LULTRA =        F    use ultrasoft PP ?                                                          
   IUNSCR =        0    unscreen: 0-lin 1-nonlin 2-no                                               
   RPACOR =    0.000    partial core radius                                                         
   POMASS =    1.000; ZVAL   =    1.000    mass and valenz                                          
   RCORE  =    0.800    outmost cutoff radius                                                       
   RWIGS  =    0.700; RWIGS  =    0.370    wigner-seitz radius (au A)                               
   ENMAX  =  700.000; ENMIN  =  350.000 eV                                                          
   RCLOC  =    0.701    cutoff for local pot                                                        
   LCOR   =        T    correct aug charges                                                         
   LPAW   =        T    paw PP                                                                      
   EAUG   = 1000.000                                                                                
   RMAX   =    0.819    core radius for proj-oper                                                   
   RAUG   =    1.000    factor for augmentation sphere                                              
   RDEP   =    0.817    radius for radial grids                                                     
   RDEPT  =    0.817    core radius for aug-charge                                                  
                                                                                                    
   Atomic configuration                                                                             
    2 entries                                                                                       
     n  l   j            E        occ.                                                              
     1  0  0.50        -6.4927   1.0000                                                             
     2  1  0.50        -3.4015   0.0000                                                             
   Description                                                                                      
     l       E           TYP  RCUT    TYP  RCUT                                                     
     0     -6.4927493     23  0.800                                                                 
     0      6.8029130     23  0.800                                                                 
     1     -6.8029130     23  0.800                                                                 
  local pseudopotential read in
  atomic valenz-charges read in
  non local Contribution for L=            0  read in
    real space projection operators read in
  non local Contribution for L=            0  read in
    real space projection operators read in
  non local Contribution for L=            1  read in
    real space projection operators read in
    PAW grid and wavefunctions read in
 
   number of l-projection  operators is LMAX  =            3
   number of lm-projection operators is LMMAX =            5
 
 POTCAR:    PAW_PBE N_h 06Feb2004                 
   VRHFIN =N: s2p3                                                                                  
   LEXCH  = PE                                                                                      
   EATOM  =   264.5486 eV,   19.4438 Ry                                                             
                                                                                                    
   TITEL  = PAW_PBE N_h 06Feb2004                                                                   
   LULTRA =        F    use ultrasoft PP ?                                                          
   IUNSCR =        1    unscreen: 0-lin 1-nonlin 2-no                                               
   RPACOR =    0.800    partial core radius                                                         
   POMASS =   14.001; ZVAL   =    5.000    mass and valenz                                          
   RCORE  =    1.100    outmost cutoff radius                                                       
   RWIGS  =    1.480; RWIGS  =    0.783    wigner-seitz radius (au A)                               
   ENMAX  =  700.000; ENMIN  =  500.000 eV                                                          
   ICORE  =        2    local potential                                                             
   LCOR   =        T    correct aug charges                                                         
   LPAW   =        T    paw PP                                                                      
   EAUG   =  904.640                                                                                
   DEXC   =    0.000                                                                                
   RMAX   =    1.127    core radius for proj-oper                                                   
   RAUG   =    1.300    factor for augmentation sphere                                              
   RDEP   =    1.115    radius for radial grids                                                     
   RDEPT  =    1.106    core radius for aug-charge                                                  
                                                                                                    
   Atomic configuration                                                                             
    4 entries                                                                                       
     n  l   j            E        occ.                                                              
     1  0  0.50      -384.7179   2.0000                                                             
     2  0  0.50       -18.5828   2.0000                                                             
     2  1  0.50        -7.0898   3.0000                                                             
     3  2  1.50        -6.8029   0.0000                                                             
   Description                                                                                      
     l       E           TYP  RCUT    TYP  RCUT                                                     
     0    -18.5828117     23  1.100                                                                 
     0    -15.0750597     23  1.100                                                                 
     1     -7.0897851     23  1.100                                                                 
     1     -1.9663412     23  1.100                                                                 
     2     -6.8029130      7  1.100                                                                 
  local pseudopotential read in
  partial core-charges read in
  partial kinetic energy density read in
  kinetic energy density of atom read in
  atomic valenz-charges read in
  non local Contribution for L=            0  read in
    real space projection operators read in
  non local Contribution for L=            0  read in
    real space projection operators read in
  non local Contribution for L=            1  read in
    real space projection operators read in
  non local Contribution for L=            1  read in
    real space projection operators read in
    PAW grid and wavefunctions read in
 
   number of l-projection  operators is LMAX  =            4
   number of lm-projection operators is LMMAX =            8
 
 POTCAR:    PAW_PBE O_h 06Feb2004                 
   VRHFIN =O: s2p4                                                                                  
   LEXCH  = PE                                                                                      
   EATOM  =   432.3788 eV,   31.7789 Ry                                                             
                                                                                                    
   TITEL  = PAW_PBE O_h 06Feb2004                                                                   
   LULTRA =        F    use ultrasoft PP ?                                                          
   IUNSCR =        1    unscreen: 0-lin 1-nonlin 2-no                                               
   RPACOR =    0.800    partial core radius                                                         
   POMASS =   16.000; ZVAL   =    6.000    mass and valenz                                          
   RCORE  =    1.100    outmost cutoff radius                                                       
   RWIGS  =    1.400; RWIGS  =    0.741    wigner-seitz radius (au A)                               
   ENMAX  =  700.000; ENMIN  =  500.000 eV                                                          
   ICORE  =        2    local potential                                                             
   LCOR   =        T    correct aug charges                                                         
   LPAW   =        T    paw PP                                                                      
   EAUG   =  888.804                                                                                
   DEXC   =    0.000                                                                                
   RMAX   =    1.128    core radius for proj-oper                                                   
   RAUG   =    1.300    factor for augmentation sphere                                              
   RDEP   =    1.125    radius for radial grids                                                     
   RDEPT  =    1.088    core radius for aug-charge                                                  
                                                                                                    
   Atomic configuration                                                                             
    4 entries                                                                                       
     n  l   j            E        occ.                                                              
     1  0  0.50      -514.6923   2.0000                                                             
     2  0  0.50       -23.9615   2.0000                                                             
     2  1  0.50        -9.0305   4.0000                                                             
     3  2  1.50        -9.5241   0.0000                                                             
   Description                                                                                      
     l       E           TYP  RCUT    TYP  RCUT                                                     
     0    -23.9615319     23  1.100                                                                 
     0    -25.3221145     23  1.100                                                                 
     1     -9.0304911     23  1.100                                                                 
     1     -5.4802209     23  1.100                                                                 
     2     -9.5240782      7  1.100                                                                 
  local pseudopotential read in
  partial core-charges read in
  partial kinetic energy density read in
  atomic valenz-charges read in
  non local Contribution for L=            0  read in
    real space projection operators read in
  non local Contribution for L=            0  read in
    real space projection operators read in
  non local Contribution for L=            1  read in
    real space projection operators read in
  non local Contribution for L=            1  read in
    real space projection operators read in
    PAW grid and wavefunctions read in
 
   number of l-projection  operators is LMAX  =            4
   number of lm-projection operators is LMMAX =            8
 
  PAW_PBE H_h 06Feb2004                 :
 energy of atom  1       EATOM=  -12.4884
 kinetic energy error for atom=    0.0001 (will be added to EATOM!!)
  PAW_PBE N_h 06Feb2004                 :
 energy of atom  2       EATOM= -264.5486
 kinetic energy error for atom=    0.0009 (will be added to EATOM!!)
  PAW_PBE O_h 06Feb2004                 :
 energy of atom  3       EATOM= -432.3788
 kinetic energy error for atom=    0.0016 (will be added to EATOM!!)
 
 
 POSCAR:  H  N  O
  positions in cartesian coordinates
  No initial velocities read in
 exchange correlation table for  LEXCH =        8
   RHO(1)=    0.500       N(1)  =     2000
   RHO(2)=  100.500       N(2)  =     4000
 


--------------------------------------------------------------------------------------------------------


 ion  position               nearest neighbor table
   1  0.010  0.001  0.021-   6 1.01
   2  0.999  0.039  0.997-   6 1.01
   3  0.971  0.002  0.997-   6 1.01
   4  0.019  0.198  0.009-   7 0.96
   5  0.984  0.200  0.985-   7 0.96
   6  0.999  0.010  0.996-   3 1.01   2 1.01   1 1.01
   7  0.000  0.182  0.997-   5 0.96   4 0.96
 
  LATTYP: Found a simple cubic cell.
 ALAT       =    35.0000000000
  
  Lattice vectors:
  
 A1 = (  35.0000000000,   0.0000000000,   0.0000000000)
 A2 = (   0.0000000000,  35.0000000000,   0.0000000000)
 A3 = (   0.0000000000,   0.0000000000,  35.0000000000)


Analysis of symmetry for initial positions (statically):
=====================================================================
 Subroutine PRICEL returns:
 Original cell was already a primitive cell.
 

 Routine SETGRP: Setting up the symmetry group for a 
 simple cubic supercell.


 Subroutine GETGRP returns: Found  1 space group operations
 (whereof  1 operations were pure point group operations)
 out of a pool of 48 trial point group operations.


The static configuration has the point symmetry C_1 .


Analysis of symmetry for dynamics (positions and initial velocities):
=====================================================================
 Subroutine PRICEL returns:
 Original cell was already a primitive cell.
 

 Routine SETGRP: Setting up the symmetry group for a 
 simple cubic supercell.


 Subroutine GETGRP returns: Found  1 space group operations
 (whereof  1 operations were pure point group operations)
 out of a pool of 48 trial point group operations.


The dynamic configuration has the point symmetry C_1 .


 Subroutine INISYM returns: Found  1 space group operations
 (whereof  1 operations are pure point group operations),
 and found     1 'primitive' translations


----------------------------------------------------------------------------------------

                                     Primitive cell                                     

  volume of cell :   42875.0000

  direct lattice vectors                    reciprocal lattice vectors
    35.000000000  0.000000000  0.000000000     0.028571429  0.000000000  0.000000000
     0.000000000 35.000000000  0.000000000     0.000000000  0.028571429  0.000000000
     0.000000000  0.000000000 35.000000000     0.000000000  0.000000000  0.028571429

  length of vectors
    35.000000000 35.000000000 35.000000000     0.028571429  0.028571429  0.028571429

  position of ions in fractional coordinates (direct lattice)
     0.010288498  0.000702679  0.020821486
     0.999498008  0.038882065  0.996685848
     0.970673256  0.002458017  0.996686295
     0.019312931  0.197606892  0.009315050
     0.983782053  0.199525677  0.984604577
     0.998586675  0.009985768  0.996060442
     0.000398437  0.181718330  0.997303770

  ion indices of the primitive-cell ions
   primitive index   ion index
                 1           1
                 2           2
                 3           3
                 4           4
                 5           5
                 6           6
                 7           7

----------------------------------------------------------------------------------------

 
 
 KPOINTS: automatic mesh                          

Automatic generation of k-mesh.
Space group operators:
 irot       det(A)        alpha          n_x          n_y          n_z        tau_x        tau_y        tau_z
    1     1.000000     0.000000     1.000000     0.000000     0.000000     0.000000     0.000000     0.000000
 
 Subroutine IBZKPT returns following result:
 ===========================================
 
 Found      1 irreducible k-points:
 
 Following reciprocal coordinates:
            Coordinates               Weight
  0.000000  0.000000  0.000000      1.000000
 
 Following cartesian coordinates:
            Coordinates               Weight
  0.000000  0.000000  0.000000      1.000000
 


--------------------------------------------------------------------------------------------------------




 Dimension of arrays:
   k-points           NKPTS =      1   k-points in BZ     NKDIM =      1   number of bands    NBANDS=     12
   number of dos      NEDOS =    301   number of ions     NIONS =      7
   non local maximal  LDIM  =      4   non local SUM 2l+1 LMDIM =      8
   total plane-waves  NPLWV = ******
   max r-space proj   IRMAX =      1   max aug-charges    IRDMAX=  23028
   dimension x,y,z NGX =   512 NGY =  512 NGZ =  512
   dimension x,y,z NGXF=  1024 NGYF= 1024 NGZF= 1024
   support grid    NGXF=  1024 NGYF= 1024 NGZF= 1024
   ions per type =               5   1   1
   NGX,Y,Z   is equivalent  to a cutoff of  24.32, 24.32, 24.32 a.u.
   NGXF,Y,Z  is equivalent  to a cutoff of  48.64, 48.64, 48.64 a.u.

 SYSTEM =  C                                       
 POSCAR =   H  N  O                                

 Startparameter for this run:
   NWRITE =      2    write-flag & timer
   PREC   = acc       normal or accurate (medium, high low for compatibility)
   ISTART =      0    job   : 0-new  1-cont  2-samecut
   ICHARG =      2    charge: 1-file 2-atom 10-const
   ISPIN  =      1    spin polarized calculation?
   LNONCOLLINEAR =      F non collinear calculations
   LSORBIT =      F    spin-orbit coupling
   INIWAV =      1    electr: 0-lowe 1-rand  2-diag
   LASPH  =      T    aspherical Exc in radial PAW
   METAGGA=      F    non-selfconsistent MetaGGA calc.

 Electronic Relaxation 1
   ENCUT  = 2000.0 eV 147.00 Ry   12.12 a.u. 127.63127.63127.63*2*pi/ulx,y,z
   ENINI  = 2000.0     initial cutoff
   ENAUG  = 1000.0 eV  augmentation charge cutoff
   NELM   =     60;   NELMIN=  2; NELMDL= -5     # of ELM steps 
   EDIFF  = 0.1E-06   stopping-criterion for ELM
   LREAL  =      F    real-space projection
   NLSPLINE    = F    spline interpolate recip. space projectors
   LCOMPAT=      F    compatible to vasp.4.4
   GGA_COMPAT  = T    GGA compatible to vasp.4.4-vasp.4.6
   LMAXPAW     = -100 max onsite density
   LMAXMIX     =    2 max onsite mixed and CHGCAR
   VOSKOWN=      0    Vosko Wilk Nusair interpolation
   ROPT   =    0.00000   0.00000   0.00000
 Ionic relaxation
   EDIFFG = 0.1E-05   stopping-criterion for IOM
   NSW    =      0    number of steps for IOM
   NBLOCK =      1;   KBLOCK =      1    inner block; outer block 
   IBRION =     -1    ionic relax: 0-MD 1-quasi-New 2-CG
   NFREE  =      0    steps in history (QN), initial steepest desc. (CG)
   ISIF   =      2    stress and relaxation
   IWAVPR =     10    prediction:  0-non 1-charg 2-wave 3-comb
   ISYM   =      2    0-nonsym 1-usesym 2-fastsym
   LCORR  =      T    Harris-Foulkes like correction to forces

   POTIM  = 0.5000    time-step for ionic-motion
   TEIN   =    0.0    initial temperature
   TEBEG  =    0.0;   TEEND  =   0.0 temperature during run
   SMASS  =  -3.00    Nose mass-parameter (am)
   estimated Nose-frequenzy (Omega)   =  0.10E-29 period in steps = 0.13E+47 mass=  -0.280E-25a.u.
   SCALEE = 1.0000    scale energy and forces
   NPACO  =    256;   APACO  = 16.0  distance and # of slots for P.C.
   PSTRESS=    0.0 pullay stress

  Mass of Ions in am
   POMASS =   1.00 14.00 16.00
  Ionic Valenz
   ZVAL   =   1.00  5.00  6.00
  Atomic Wigner-Seitz radii
   RWIGS  =  -1.00 -1.00 -1.00
  virtual crystal weights 
   VCA    =   1.00  1.00  1.00
   NELECT =      16.0000    total number of electrons
   NUPDOWN=      -1.0000    fix difference up-down

 DOS related values:
   EMIN   =  10.00;   EMAX   =-10.00  energy-range for DOS
   EFERMI =   0.00
   ISMEAR =     0;   SIGMA  =   0.01  broadening in eV -4-tet -1-fermi 0-gaus

 Electronic relaxation 2 (details)
   IALGO  =     38    algorithm
   LDIAG  =      T    sub-space diagonalisation (order eigenvalues)
   LSUBROT=      F    optimize rotation matrix (better conditioning)
   TURBO    =      0    0=normal 1=particle mesh
   IRESTART =      0    0=no restart 2=restart with 2 vectors
   NREBOOT  =      0    no. of reboots
   NMIN     =      0    reboot dimension
   EREF     =   0.00    reference energy to select bands
   IMIX   =      4    mixing-type and parameters
     AMIX     =   0.40;   BMIX     =  1.00
     AMIX_MAG =   1.60;   BMIX_MAG =  1.00
     AMIN     =   0.10
     WC   =   100.;   INIMIX=   1;  MIXPRE=   1;  MAXMIX= -45

 Intra band minimization:
   WEIMIN = 0.0000     energy-eigenvalue tresh-hold
   EBREAK =  0.21E-08  absolut break condition
   DEPER  =   0.30     relativ break condition  

   TIME   =   0.40     timestep for ELM

  volume/ion in A,a.u.               =    6125.00     41333.54
  Fermi-wavevector in a.u.,A,eV,Ry     =   0.117864  0.222730  0.189010  0.013892
  Thomas-Fermi vector in A             =   0.732055
 
 Write flags
   LWAVE        =      T    write WAVECAR
   LDOWNSAMPLE  =      F    k-point downsampling of WAVECAR
   LCHARG       =      T    write CHGCAR
   LVTOT        =      F    write LOCPOT, total local potential
   LVHAR        =      F    write LOCPOT, Hartree potential only
   LELF         =      F    write electronic localiz. function (ELF)
   LORBIT       =      0    0 simple, 1 ext, 2 COOP (PROOUT), +10 PAW based schemes


 Dipole corrections
   LMONO  =      F    monopole corrections only (constant potential shift)
   LDIPOL =      F    correct potential (dipole corrections)
   IDIPOL =      4    1-x, 2-y, 3-z, 4-all directions 
   EPSILON=  1.0000000 bulk dielectric constant

 Exchange correlation treatment:
   GGA     =    --    GGA type
   LEXCH   =     8    internal setting for exchange type
   VOSKOWN=      0    Vosko Wilk Nusair interpolation
   LHFCALC =     F    Hartree Fock is set to
   LHFONE  =     F    Hartree Fock one center treatment
   AEXX    =    0.0000 exact exchange contribution

 Linear response parameters
   LEPSILON=     F    determine dielectric tensor
   LRPA    =     F    only Hartree local field effects (RPA)
   LNABLA  =     F    use nabla operator in PAW spheres
   LVEL    =     F    velocity operator in full k-point grid
   LINTERFAST=   F  fast interpolation
   KINTER  =     0    interpolate to denser k-point grid
   CSHIFT  =0.1000    complex shift for real part using Kramers Kronig
   OMEGAMAX=  -1.0    maximum frequency
   DEG_THRESHOLD= 0.2000000E-02 threshold for treating states as degnerate
   RTIME   =   -0.100 relaxation time in fs
  (WPLASMAI=    0.000 imaginary part of plasma frequency in eV, 0.658/RTIME)
   DFIELD  = 0.0000000 0.0000000 0.0000000 field for delta impulse in time
 
 Orbital magnetization related:
   ORBITALMAG=     F  switch on orbital magnetization
   LCHIMAG   =     F  perturbation theory with respect to B field
   DQ        =  0.001000  dq finite difference perturbation B field
   LLRAUG    =     F  two centre corrections for induced B field



--------------------------------------------------------------------------------------------------------


 Static calculation
 charge density and potential will be updated during run
 non-spin polarized calculation
 Variant of blocked Davidson
 Davidson routine will perform the subspace rotation
 perform sub-space diagonalisation
    after iterative eigenvector-optimisation
 modified Broyden-mixing scheme, WC =      100.0
 initial mixing is a Kerker type mixing with AMIX =  0.4000 and BMIX =      1.0000
 Hartree-type preconditioning will be used
 using additional bands             4
 reciprocal scheme for non local part
 use partial core corrections
 calculate Harris-corrections to forces 
   (improved forces if not selfconsistent)
 use gradient corrections 
 use of overlap-Matrix (Vanderbilt PP)
 Gauss-broadening in eV      SIGMA  =   0.01


--------------------------------------------------------------------------------------------------------


  energy-cutoff  :     2000.00
  volume of cell :    42875.00
      direct lattice vectors                 reciprocal lattice vectors
    35.000000000  0.000000000  0.000000000     0.028571429  0.000000000  0.000000000
     0.000000000 35.000000000  0.000000000     0.000000000  0.028571429  0.000000000
     0.000000000  0.000000000 35.000000000     0.000000000  0.000000000  0.028571429

  length of vectors
    35.000000000 35.000000000 35.000000000     0.028571429  0.028571429  0.028571429


 
 k-points in units of 2pi/SCALE and weight: automatic mesh                          
   0.00000000  0.00000000  0.00000000       1.000
 
 k-points in reciprocal lattice and weights: automatic mesh                          
   0.00000000  0.00000000  0.00000000       1.000
 
 position of ions in fractional coordinates (direct lattice) 
   0.01028850  0.00070268  0.02082149
   0.99949801  0.03888207  0.99668585
   0.97067326  0.00245802  0.99668630
   0.01931293  0.19760689  0.00931505
   0.98378205  0.19952568  0.98460458
   0.99858668  0.00998577  0.99606044
   0.00039844  0.18171833  0.99730377
 
 position of ions in cartesian coordinates  (Angst):
   0.36009743  0.02459378  0.72875202
  34.98243028  1.36087229 34.88400467
  33.97356397  0.08603060 34.88402033
   0.67595257  6.91624124  0.32602674
  34.43237184  6.98339870 34.46116020
  34.95053363  0.34950188 34.86211549
   0.01394528  6.36014156 34.90563195
 


--------------------------------------------------------------------------------------------------------


 use parallel FFT for orbitals z direction half grid
 k-point   1 :   0.0000 0.0000 0.0000  plane waves: 4353902

 maximum and minimum number of plane-waves per node :    544247   544233

 maximum number of plane-waves:   4353902
 maximum index in each direction: 
   IXMAX=  127   IYMAX=  127   IZMAX=  127
   IXMIN= -127   IYMIN= -127   IZMIN=    0


 parallel 3D FFT for wavefunctions:
    minimum data exchange during FFTs selected (reduces bandwidth)
 parallel 3D FFT for charge:
    minimum data exchange during FFTs selected (reduces bandwidth)


 total amount of memory used by VASP MPI-rank0  7822733. kBytes
=======================================================================

   base      :      30000. kBytes
   nonl-proj :     165447. kBytes
   fftplans  :    2602168. kBytes
   grid      :    4972871. kBytes
   one-center:          1. kBytes
   wavefun   :      52246. kBytes
 
     INWAV:  cpu time    0.0000: real time    0.0000
 Broyden mixing: mesh for mixing (old mesh)
   NGX =255   NGY =255   NGZ =255
  (NGX  =***   NGY  =***   NGZ  =***)
  gives a total of ****** points

 initial charge density was supplied:
 charge density of overlapping atoms calculated
 number of electron      16.0000000 magnetization 
 keeping initial charge density in first step


--------------------------------------------------------------------------------------------------------


 Maximum index for augmentation-charges          1248 (set IRDMAX)


--------------------------------------------------------------------------------------------------------


 First call to EWALD:  gamma=   0.051
 Maximum number of real-space cells 3x 3x 3
 Maximum number of reciprocal cells 3x 3x 3

    FEWALD:  cpu time    0.0009: real time    0.0009


--------------------------------------- Iteration      1(   1)  ---------------------------------------


    POTLOK:  cpu time   48.2465: real time   48.3079
    SETDIJ:  cpu time    0.1281: real time    0.1304
     EDDAV:  cpu time   15.2542: real time   15.2940
       DOS:  cpu time    0.0084: real time    0.0084
    --------------------------------------------
      LOOP:  cpu time   63.6373: real time   63.7407

 eigenvalue-minimisations  :    24
 total energy-change (2. order) : 0.1908916E+03  (-0.2666509E+03)
 number of electron      16.0000000 magnetization 
 augmentation part       16.0000000 magnetization 

 Free energy of the ion-electron system (eV)
  ---------------------------------------------------
  alpha Z        PSCENC =         0.01586818
  Ewald energy   TEWEN  =       432.85541211
  -Hartree energ DENC   =      -997.42302897
  -exchange      EXHF   =         0.00000000
  -V(xc)+E(xc)   XCENC  =        54.00897683
  PAW double counting   =       558.51391053     -558.42352984
  entropy T*S    EENTRO =        -0.00000000
  eigenvalues    EBANDS =       -58.02257265
  atomic energy  EATOM  =       759.36657541
  Solvation  Ediel_sol  =         0.00000000
  ---------------------------------------------------
  free energy    TOTEN  =       190.89161161 eV

  energy without entropy =      190.89161161  energy(sigma->0) =      190.89161161


--------------------------------------------------------------------------------------------------------




--------------------------------------- Iteration      1(   2)  ---------------------------------------


     EDDAV:  cpu time   18.5043: real time   18.5329
       DOS:  cpu time    0.0097: real time    0.0097
    --------------------------------------------
      LOOP:  cpu time   18.5140: real time   18.5426

 eigenvalue-minimisations  :    32
 total energy-change (2. order) :-0.7816142E+02  (-0.6352461E+02)
 number of electron      16.0000000 magnetization 
 augmentation part       16.0000000 magnetization 

 Free energy of the ion-electron system (eV)
  ---------------------------------------------------
  alpha Z        PSCENC =         0.01586818
  Ewald energy   TEWEN  =       432.85541211
  -Hartree energ DENC   =      -997.42302897
  -exchange      EXHF   =         0.00000000
  -V(xc)+E(xc)   XCENC  =        54.00897683
  PAW double counting   =       558.51391053     -558.42352984
  entropy T*S    EENTRO =        -0.00000000
  eigenvalues    EBANDS =      -136.18398944
  atomic energy  EATOM  =       759.36657541
  Solvation  Ediel_sol  =         0.00000000
  ---------------------------------------------------
  free energy    TOTEN  =       112.73019482 eV

  energy without entropy =      112.73019482  energy(sigma->0) =      112.73019482


--------------------------------------------------------------------------------------------------------




--------------------------------------- Iteration      1(   3)  ---------------------------------------


     EDDAV:  cpu time   25.0847: real time   25.1294
       DOS:  cpu time    0.0071: real time    0.0071
    --------------------------------------------
      LOOP:  cpu time   25.0917: real time   25.1364

 eigenvalue-minimisations  :    48
 total energy-change (2. order) :-0.1092359E+03  (-0.1080472E+03)
 number of electron      16.0000000 magnetization 
 augmentation part       16.0000000 magnetization 

 Free energy of the ion-electron system (eV)
  ---------------------------------------------------
  alpha Z        PSCENC =         0.01586818
  Ewald energy   TEWEN  =       432.85541211
  -Hartree energ DENC   =      -997.42302897
  -exchange      EXHF   =         0.00000000
  -V(xc)+E(xc)   XCENC  =        54.00897683
  PAW double counting   =       558.51391053     -558.42352984
  entropy T*S    EENTRO =        -0.00000000
  eigenvalues    EBANDS =      -245.41985502
  atomic energy  EATOM  =       759.36657541
  Solvation  Ediel_sol  =         0.00000000
  ---------------------------------------------------
  free energy    TOTEN  =         3.49432923 eV

  energy without entropy =        3.49432923  energy(sigma->0) =        3.49432923


--------------------------------------------------------------------------------------------------------




--------------------------------------- Iteration      1(   4)  ---------------------------------------


     EDDAV:  cpu time   20.1698: real time   20.2017
       DOS:  cpu time    0.0075: real time    0.0075
    --------------------------------------------
      LOOP:  cpu time   20.1773: real time   20.2092

 eigenvalue-minimisations  :    36
 total energy-change (2. order) :-0.3799479E+02  (-0.3790616E+02)
 number of electron      16.0000000 magnetization 
 augmentation part       16.0000000 magnetization 

 Free energy of the ion-electron system (eV)
  ---------------------------------------------------
  alpha Z        PSCENC =         0.01586818
  Ewald energy   TEWEN  =       432.85541211
  -Hartree energ DENC   =      -997.42302897
  -exchange      EXHF   =         0.00000000
  -V(xc)+E(xc)   XCENC  =        54.00897683
  PAW double counting   =       558.51391053     -558.42352984
  entropy T*S    EENTRO =        -0.00000000
  eigenvalues    EBANDS =      -283.41464519
  atomic energy  EATOM  =       759.36657541
  Solvation  Ediel_sol  =         0.00000000
  ---------------------------------------------------
  free energy    TOTEN  =       -34.50046093 eV

  energy without entropy =      -34.50046093  energy(sigma->0) =      -34.50046093


--------------------------------------------------------------------------------------------------------




--------------------------------------- Iteration      1(   5)  ---------------------------------------


     EDDAV:  cpu time   18.5714: real time   18.6004
       DOS:  cpu time    0.0106: real time    0.0106
    CHARGE:  cpu time    5.4958: real time    5.5038
    MIXING:  cpu time    1.0259: real time    1.0272
    --------------------------------------------
      LOOP:  cpu time   25.1037: real time   25.1420

 eigenvalue-minimisations  :    32
 total energy-change (2. order) :-0.4489565E+01  (-0.4487542E+01)
 number of electron      16.0000000 magnetization 
 augmentation part        0.1228746 magnetization 

 Broyden mixing:
  rms(total) = 0.20934E+01    rms(broyden)= 0.20934E+01
  rms(prec ) = 0.21175E+01
  weight for this iteration     100.00

 Free energy of the ion-electron system (eV)
  ---------------------------------------------------
  alpha Z        PSCENC =         0.01586818
  Ewald energy   TEWEN  =       432.85541211
  -Hartree energ DENC   =      -997.42302897
  -exchange      EXHF   =         0.00000000
  -V(xc)+E(xc)   XCENC  =        54.00897683
  PAW double counting   =       558.51391053     -558.42352984
  entropy T*S    EENTRO =        -0.00000000
  eigenvalues    EBANDS =      -287.90421056
  atomic energy  EATOM  =       759.36657541
  Solvation  Ediel_sol  =         0.00000000
  ---------------------------------------------------
  free energy    TOTEN  =       -38.99002630 eV

  energy without entropy =      -38.99002630  energy(sigma->0) =      -38.99002630


--------------------------------------------------------------------------------------------------------




--------------------------------------- Iteration      1(   6)  ---------------------------------------


    POTLOK:  cpu time   48.2192: real time   48.2818
    SETDIJ:  cpu time    0.1377: real time    0.1377
     EDDAV:  cpu time   16.8353: real time   16.8620
       DOS:  cpu time    0.0079: real time    0.0079
    CHARGE:  cpu time    5.0929: real time    5.1002
    MIXING:  cpu time    1.0225: real time    1.0308
    --------------------------------------------
      LOOP:  cpu time   71.3155: real time   71.4204

 eigenvalue-minimisations  :    28
 total energy-change (2. order) : 0.4623647E+01  (-0.1666605E+01)
 number of electron      16.0000000 magnetization 
 augmentation part        0.0620276 magnetization 

 Broyden mixing:
  rms(total) = 0.15902E+01    rms(broyden)= 0.15902E+01
  rms(prec ) = 0.15936E+01
  weight for this iteration     100.00

 eigenvalues of (default mixing * dielectric matrix)
  average eigenvalue GAMMA=   0.9630
  0.9630

 Free energy of the ion-electron system (eV)
  ---------------------------------------------------
  alpha Z        PSCENC =         0.01586818
  Ewald energy   TEWEN  =       432.85541211
  -Hartree energ DENC   =     -1045.07434302
  -exchange      EXHF   =         0.00000000
  -V(xc)+E(xc)   XCENC  =        56.61690509
  PAW double counting   =      1575.55799480    -1575.97414724
  entropy T*S    EENTRO =        -0.00000000
  eigenvalues    EBANDS =      -237.73064508
  atomic energy  EATOM  =       759.36657541
  Solvation  Ediel_sol  =         0.00000000
  ---------------------------------------------------
  free energy    TOTEN  =       -34.36637976 eV

  energy without entropy =      -34.36637976  energy(sigma->0) =      -34.36637976


--------------------------------------------------------------------------------------------------------




--------------------------------------- Iteration      1(   7)  ---------------------------------------


    POTLOK:  cpu time   48.4219: real time   48.4822
    SETDIJ:  cpu time    0.1321: real time    0.1322
     EDDAV:  cpu time   20.2506: real time   20.2820
       DOS:  cpu time    0.0136: real time    0.0136
    CHARGE:  cpu time    5.3027: real time    5.3104
    MIXING:  cpu time    1.5642: real time    1.5659
    --------------------------------------------
      LOOP:  cpu time   75.6851: real time   75.7862

 eigenvalue-minimisations  :    36
 total energy-change (2. order) : 0.2917631E+00  (-0.1258230E+00)
 number of electron      16.0000000 magnetization 
 augmentation part        0.0567141 magnetization 

 Broyden mixing:
  rms(total) = 0.10518E+01    rms(broyden)= 0.10518E+01
  rms(prec ) = 0.10537E+01
  weight for this iteration     100.00

 eigenvalues of (default mixing * dielectric matrix)
  average eigenvalue GAMMA=   1.7654
  0.9783  2.5525

 Free energy of the ion-electron system (eV)
  ---------------------------------------------------
  alpha Z        PSCENC =         0.01586818
  Ewald energy   TEWEN  =       432.85541211
  -Hartree energ DENC   =     -1057.25685198
  -exchange      EXHF   =         0.00000000
  -V(xc)+E(xc)   XCENC  =        57.35156997
  PAW double counting   =      3090.90951104    -3091.33029391
  entropy T*S    EENTRO =        -0.00000000
  eigenvalues    EBANDS =      -225.98640753
  atomic energy  EATOM  =       759.36657541
  Solvation  Ediel_sol  =         0.00000000
  ---------------------------------------------------
  free energy    TOTEN  =       -34.07461670 eV

  energy without entropy =      -34.07461670  energy(sigma->0) =      -34.07461670


--------------------------------------------------------------------------------------------------------




--------------------------------------- Iteration      1(   8)  ---------------------------------------


    POTLOK:  cpu time   48.3794: real time   48.4401
    SETDIJ:  cpu time    0.1341: real time    0.1342
     EDDAV:  cpu time   18.6173: real time   18.6474
       DOS:  cpu time    0.0102: real time    0.0102
    CHARGE:  cpu time    5.2694: real time    5.2771
    MIXING:  cpu time    1.5655: real time    1.5670
    --------------------------------------------
      LOOP:  cpu time   73.9760: real time   74.0761

 eigenvalue-minimisations  :    32
 total energy-change (2. order) : 0.2282101E+00  (-0.2837523E-01)
 number of electron      16.0000000 magnetization 
 augmentation part        0.0620895 magnetization 

 Broyden mixing:
  rms(total) = 0.30601E+00    rms(broyden)= 0.30601E+00
  rms(prec ) = 0.30670E+00
  weight for this iteration     100.00

 eigenvalues of (default mixing * dielectric matrix)
  average eigenvalue GAMMA=   1.3125
  1.9998  0.9849  0.9527

 Free energy of the ion-electron system (eV)
  ---------------------------------------------------
  alpha Z        PSCENC =         0.01586818
  Ewald energy   TEWEN  =       432.85541211
  -Hartree energ DENC   =     -1068.53851707
  -exchange      EXHF   =         0.00000000
  -V(xc)+E(xc)   XCENC  =        58.16166782
  PAW double counting   =      6671.01824806    -6671.34476975
  entropy T*S    EENTRO =        -0.00000000
  eigenvalues    EBANDS =      -215.38089137
  atomic energy  EATOM  =       759.36657541
  Solvation  Ediel_sol  =         0.00000000
  ---------------------------------------------------
  free energy    TOTEN  =       -33.84640661 eV

  energy without entropy =      -33.84640661  energy(sigma->0) =      -33.84640661


--------------------------------------------------------------------------------------------------------




--------------------------------------- Iteration      1(   9)  ---------------------------------------


    POTLOK:  cpu time   48.2287: real time   48.2906
    SETDIJ:  cpu time    0.1480: real time    0.1480
     EDDAV:  cpu time   21.9258: real time   21.9604
       DOS:  cpu time    0.0106: real time    0.0106
    CHARGE:  cpu time    5.3291: real time    5.3369
    MIXING:  cpu time    1.0943: real time    1.0958
    --------------------------------------------
      LOOP:  cpu time   76.7364: real time   76.8424

 eigenvalue-minimisations  :    40
 total energy-change (2. order) :-0.5166375E-02  (-0.3888990E-02)
 number of electron      16.0000000 magnetization 
 augmentation part        0.0586027 magnetization 

 Broyden mixing:
  rms(total) = 0.47016E-01    rms(broyden)= 0.47016E-01
  rms(prec ) = 0.50193E-01
  weight for this iteration     100.00

 eigenvalues of (default mixing * dielectric matrix)
  average eigenvalue GAMMA=   1.3966
  1.8581  1.8581  0.9351  0.9351

 Free energy of the ion-electron system (eV)
  ---------------------------------------------------
  alpha Z        PSCENC =         0.01586818
  Ewald energy   TEWEN  =       432.85541211
  -Hartree energ DENC   =     -1068.84633470
  -exchange      EXHF   =         0.00000000
  -V(xc)+E(xc)   XCENC  =        58.12346997
  PAW double counting   =      5817.39160567    -5817.74937330
  entropy T*S    EENTRO =        -0.00000000
  eigenvalues    EBANDS =      -215.00879633
  atomic energy  EATOM  =       759.36657541
  Solvation  Ediel_sol  =         0.00000000
  ---------------------------------------------------
  free energy    TOTEN  =       -33.85157299 eV

  energy without entropy =      -33.85157299  energy(sigma->0) =      -33.85157299


--------------------------------------------------------------------------------------------------------




--------------------------------------- Iteration      1(  10)  ---------------------------------------


    POTLOK:  cpu time   48.4182: real time   48.4803
    SETDIJ:  cpu time    0.1436: real time    0.1436
     EDDAV:  cpu time   18.6748: real time   18.7043
       DOS:  cpu time    0.0109: real time    0.0109
    CHARGE:  cpu time    5.3657: real time    5.3734
    MIXING:  cpu time    1.1566: real time    1.1582
    --------------------------------------------
      LOOP:  cpu time   73.7697: real time   73.8706

 eigenvalue-minimisations  :    32
 total energy-change (2. order) : 0.3507135E-02  (-0.4751546E-03)
 number of electron      16.0000000 magnetization 
 augmentation part        0.0585435 magnetization 

 Broyden mixing:
  rms(total) = 0.22224E-01    rms(broyden)= 0.22224E-01
  rms(prec ) = 0.25238E-01
  weight for this iteration     100.00

 eigenvalues of (default mixing * dielectric matrix)
  average eigenvalue GAMMA=   1.5694
  2.4383  2.4383  1.0982  0.9362  0.9362

 Free energy of the ion-electron system (eV)
  ---------------------------------------------------
  alpha Z        PSCENC =         0.01586818
  Ewald energy   TEWEN  =       432.85541211
  -Hartree energ DENC   =     -1070.82168163
  -exchange      EXHF   =         0.00000000
  -V(xc)+E(xc)   XCENC  =        58.21023362
  PAW double counting   =      5737.27077362    -5737.62625464
  entropy T*S    EENTRO =        -0.00000000
  eigenvalues    EBANDS =      -213.11899253
  atomic energy  EATOM  =       759.36657541
  Solvation  Ediel_sol  =         0.00000000
  ---------------------------------------------------
  free energy    TOTEN  =       -33.84806585 eV

  energy without entropy =      -33.84806585  energy(sigma->0) =      -33.84806585


--------------------------------------------------------------------------------------------------------




--------------------------------------- Iteration      1(  11)  ---------------------------------------


    POTLOK:  cpu time   48.4321: real time   48.4935
    SETDIJ:  cpu time    0.1413: real time    0.1413
     EDDAV:  cpu time   21.8753: real time   21.9096
       DOS:  cpu time    0.0053: real time    0.0053
    CHARGE:  cpu time    5.3696: real time    5.3774
    MIXING:  cpu time    1.1672: real time    1.1688
    --------------------------------------------
      LOOP:  cpu time   76.9907: real time   77.0958

 eigenvalue-minimisations  :    40
 total energy-change (2. order) :-0.1826739E-02  (-0.5148436E-03)
 number of electron      16.0000000 magnetization 
 augmentation part        0.0579359 magnetization 

 Broyden mixing:
  rms(total) = 0.84525E-02    rms(broyden)= 0.84525E-02
  rms(prec ) = 0.11189E-01
  weight for this iteration     100.00

 eigenvalues of (default mixing * dielectric matrix)
  average eigenvalue GAMMA=   1.5867
  2.6010  2.6010  1.4243  0.8900  0.8900  1.1137

 Free energy of the ion-electron system (eV)
  ---------------------------------------------------
  alpha Z        PSCENC =         0.01586818
  Ewald energy   TEWEN  =       432.85541211
  -Hartree energ DENC   =     -1072.74147528
  -exchange      EXHF   =         0.00000000
  -V(xc)+E(xc)   XCENC  =        58.28358326
  PAW double counting   =      5652.72029155    -5653.07466305
  entropy T*S    EENTRO =        -0.00000000
  eigenvalues    EBANDS =      -211.27548477
  atomic energy  EATOM  =       759.36657541
  Solvation  Ediel_sol  =         0.00000000
  ---------------------------------------------------
  free energy    TOTEN  =       -33.84989259 eV

  energy without entropy =      -33.84989259  energy(sigma->0) =      -33.84989259


--------------------------------------------------------------------------------------------------------




--------------------------------------- Iteration      1(  12)  ---------------------------------------


    POTLOK:  cpu time   48.4351: real time   48.4962
    SETDIJ:  cpu time    0.1288: real time    0.1289
     EDDAV:  cpu time   18.6927: real time   18.7232
       DOS:  cpu time    0.0071: real time    0.0071
    CHARGE:  cpu time    5.2811: real time    5.2888
    MIXING:  cpu time    1.7555: real time    1.7573
    --------------------------------------------
      LOOP:  cpu time   74.3001: real time   74.4015

 eigenvalue-minimisations  :    32
 total energy-change (2. order) :-0.5569467E-02  (-0.1179500E-03)
 number of electron      16.0000000 magnetization 
 augmentation part        0.0581448 magnetization 

 Broyden mixing:
  rms(total) = 0.55390E-02    rms(broyden)= 0.55390E-02
  rms(prec ) = 0.76472E-02
  weight for this iteration     100.00

 eigenvalues of (default mixing * dielectric matrix)
  average eigenvalue GAMMA=   1.6260
  3.2124  2.3444  1.4887  1.4887  1.0569  0.8956  0.8956

 Free energy of the ion-electron system (eV)
  ---------------------------------------------------
  alpha Z        PSCENC =         0.01586818
  Ewald energy   TEWEN  =       432.85541211
  -Hartree energ DENC   =     -1073.25573364
  -exchange      EXHF   =         0.00000000
  -V(xc)+E(xc)   XCENC  =        58.28385172
  PAW double counting   =      5625.90124314    -5626.25205410
  entropy T*S    EENTRO =        -0.00000000
  eigenvalues    EBANDS =      -210.77062488
  atomic energy  EATOM  =       759.36657541
  Solvation  Ediel_sol  =         0.00000000
  ---------------------------------------------------
  free energy    TOTEN  =       -33.85546206 eV

  energy without entropy =      -33.85546206  energy(sigma->0) =      -33.85546206


--------------------------------------------------------------------------------------------------------




--------------------------------------- Iteration      1(  13)  ---------------------------------------


    POTLOK:  cpu time   48.6528: real time   48.7134
    SETDIJ:  cpu time    0.1223: real time    0.1224
     EDDAV:  cpu time   20.2149: real time   20.2468
       DOS:  cpu time    0.0111: real time    0.0111
    CHARGE:  cpu time    5.3581: real time    5.3660
    MIXING:  cpu time    1.2242: real time    1.2259
    --------------------------------------------
      LOOP:  cpu time   75.5834: real time   75.6857

 eigenvalue-minimisations  :    36
 total energy-change (2. order) :-0.5302708E-02  (-0.1116811E-03)
 number of electron      16.0000000 magnetization 
 augmentation part        0.0578474 magnetization 

 Broyden mixing:
  rms(total) = 0.56768E-02    rms(broyden)= 0.56768E-02
  rms(prec ) = 0.66761E-02
  weight for this iteration     100.00

 eigenvalues of (default mixing * dielectric matrix)
  average eigenvalue GAMMA=   1.8110
  4.6059  2.4343  2.4343  1.1121  1.1121  0.8649  0.9624  0.9624

 Free energy of the ion-electron system (eV)
  ---------------------------------------------------
  alpha Z        PSCENC =         0.01586818
  Ewald energy   TEWEN  =       432.85541211
  -Hartree energ DENC   =     -1073.91094906
  -exchange      EXHF   =         0.00000000
  -V(xc)+E(xc)   XCENC  =        58.29556398
  PAW double counting   =      5613.05684774    -5613.40787330
  entropy T*S    EENTRO =        -0.00000000
  eigenvalues    EBANDS =      -210.13220983
  atomic energy  EATOM  =       759.36657541
  Solvation  Ediel_sol  =         0.00000000
  ---------------------------------------------------
  free energy    TOTEN  =       -33.86076476 eV

  energy without entropy =      -33.86076476  energy(sigma->0) =      -33.86076476


--------------------------------------------------------------------------------------------------------




--------------------------------------- Iteration      1(  14)  ---------------------------------------


    POTLOK:  cpu time   48.4331: real time   48.4945
    SETDIJ:  cpu time    0.1311: real time    0.1312
     EDDAV:  cpu time   20.2642: real time   20.2958
       DOS:  cpu time    0.0066: real time    0.0066
    CHARGE:  cpu time    5.2964: real time    5.3042
    MIXING:  cpu time    1.6474: real time    1.6493
    --------------------------------------------
      LOOP:  cpu time   75.7788: real time   75.8815

 eigenvalue-minimisations  :    36
 total energy-change (2. order) :-0.5258132E-02  (-0.1110549E-03)
 number of electron      16.0000000 magnetization 
 augmentation part        0.0578700 magnetization 

 Broyden mixing:
  rms(total) = 0.24683E-02    rms(broyden)= 0.24683E-02
  rms(prec ) = 0.31185E-02
  weight for this iteration     100.00

 eigenvalues of (default mixing * dielectric matrix)
  average eigenvalue GAMMA=   1.8755
  5.1521  2.8863  2.3620  1.4056  1.4056  0.9845  0.9845  0.8863  0.8124

 Free energy of the ion-electron system (eV)
  ---------------------------------------------------
  alpha Z        PSCENC =         0.01586818
  Ewald energy   TEWEN  =       432.85541211
  -Hartree energ DENC   =     -1074.36956675
  -exchange      EXHF   =         0.00000000
  -V(xc)+E(xc)   XCENC  =        58.29499260
  PAW double counting   =      5619.79889665    -5620.14833209
  entropy T*S    EENTRO =        -0.00000000
  eigenvalues    EBANDS =      -209.67986900
  atomic energy  EATOM  =       759.36657541
  Solvation  Ediel_sol  =         0.00000000
  ---------------------------------------------------
  free energy    TOTEN  =       -33.86602290 eV

  energy without entropy =      -33.86602290  energy(sigma->0) =      -33.86602290


--------------------------------------------------------------------------------------------------------




--------------------------------------- Iteration      1(  15)  ---------------------------------------


    POTLOK:  cpu time   48.5980: real time   48.6607
    SETDIJ:  cpu time    0.1266: real time    0.1266
     EDDAV:  cpu time   21.9327: real time   21.9671
       DOS:  cpu time    0.0079: real time    0.0079
    CHARGE:  cpu time    5.3594: real time    5.3679
    MIXING:  cpu time    1.5768: real time    1.5789
    --------------------------------------------
      LOOP:  cpu time   77.6014: real time   77.7090

 eigenvalue-minimisations  :    40
 total energy-change (2. order) :-0.3777233E-02  (-0.4623343E-04)
 number of electron      16.0000000 magnetization 
 augmentation part        0.0578061 magnetization 

 Broyden mixing:
  rms(total) = 0.20566E-02    rms(broyden)= 0.20566E-02
  rms(prec ) = 0.23182E-02
  weight for this iteration     100.00

 eigenvalues of (default mixing * dielectric matrix)
  average eigenvalue GAMMA=   2.0215
  6.1141  3.4541  2.3590  2.3590  1.1490  1.1490  0.9639  0.9639  0.8200  0.8831

 Free energy of the ion-electron system (eV)
  ---------------------------------------------------
  alpha Z        PSCENC =         0.01586818
  Ewald energy   TEWEN  =       432.85541211
  -Hartree energ DENC   =     -1074.49264865
  -exchange      EXHF   =         0.00000000
  -V(xc)+E(xc)   XCENC  =        58.29063152
  PAW double counting   =      5629.38492624    -5629.73464326
  entropy T*S    EENTRO =        -0.00000000
  eigenvalues    EBANDS =      -209.55592168
  atomic energy  EATOM  =       759.36657541
  Solvation  Ediel_sol  =         0.00000000
  ---------------------------------------------------
  free energy    TOTEN  =       -33.86980013 eV

  energy without entropy =      -33.86980013  energy(sigma->0) =      -33.86980013


--------------------------------------------------------------------------------------------------------




--------------------------------------- Iteration      1(  16)  ---------------------------------------


    POTLOK:  cpu time   48.4217: real time   48.4831
    SETDIJ:  cpu time    0.1166: real time    0.1167
     EDDAV:  cpu time   18.6821: real time   18.7120
       DOS:  cpu time    0.0121: real time    0.0121
    CHARGE:  cpu time    5.3608: real time    5.3683
    MIXING:  cpu time    1.7938: real time    1.7961
    --------------------------------------------
      LOOP:  cpu time   74.3870: real time   74.4882

 eigenvalue-minimisations  :    32
 total energy-change (2. order) :-0.2123550E-02  (-0.2192663E-04)
 number of electron      16.0000000 magnetization 
 augmentation part        0.0577906 magnetization 

 Broyden mixing:
  rms(total) = 0.83395E-03    rms(broyden)= 0.83395E-03
  rms(prec ) = 0.99662E-03
  weight for this iteration     100.00

 eigenvalues of (default mixing * dielectric matrix)
  average eigenvalue GAMMA=   2.1326
  7.5039  3.6987  2.6278  2.3486  1.2670  1.2670  1.1571  0.9274  0.9274  0.8670
  0.8670

 Free energy of the ion-electron system (eV)
  ---------------------------------------------------
  alpha Z        PSCENC =         0.01586818
  Ewald energy   TEWEN  =       432.85541211
  -Hartree energ DENC   =     -1074.51908524
  -exchange      EXHF   =         0.00000000
  -V(xc)+E(xc)   XCENC  =        58.28586208
  PAW double counting   =      5620.63261835    -5620.98251458
  entropy T*S    EENTRO =        -0.00000000
  eigenvalues    EBANDS =      -209.52665999
  atomic energy  EATOM  =       759.36657541
  Solvation  Ediel_sol  =         0.00000000
  ---------------------------------------------------
  free energy    TOTEN  =       -33.87192368 eV

  energy without entropy =      -33.87192368  energy(sigma->0) =      -33.87192368


--------------------------------------------------------------------------------------------------------




--------------------------------------- Iteration      1(  17)  ---------------------------------------


    POTLOK:  cpu time   48.2847: real time   48.3474
    SETDIJ:  cpu time    0.1229: real time    0.1230
     EDDAV:  cpu time   21.9711: real time   22.0057
       DOS:  cpu time    0.0014: real time    0.0014
    CHARGE:  cpu time    5.3821: real time    5.3897
    MIXING:  cpu time    1.5818: real time    1.5839
    --------------------------------------------
      LOOP:  cpu time   77.3440: real time   77.4511

 eigenvalue-minimisations  :    40
 total energy-change (2. order) :-0.8105239E-03  (-0.4663614E-05)
 number of electron      16.0000000 magnetization 
 augmentation part        0.0577802 magnetization 

 Broyden mixing:
  rms(total) = 0.62342E-03    rms(broyden)= 0.62342E-03
  rms(prec ) = 0.70119E-03
  weight for this iteration     100.00

 eigenvalues of (default mixing * dielectric matrix)
  average eigenvalue GAMMA=   2.1993
  7.9626  4.1189  2.5452  2.5452  2.2725  1.1597  1.1597  1.0443  0.9400  0.9400
  0.8520  0.8520

 Free energy of the ion-electron system (eV)
  ---------------------------------------------------
  alpha Z        PSCENC =         0.01586818
  Ewald energy   TEWEN  =       432.85541211
  -Hartree energ DENC   =     -1074.55597678
  -exchange      EXHF   =         0.00000000
  -V(xc)+E(xc)   XCENC  =        58.28548419
  PAW double counting   =      5621.13827323    -5621.48811483
  entropy T*S    EENTRO =        -0.00000000
  eigenvalues    EBANDS =      -209.49025572
  atomic energy  EATOM  =       759.36657541
  Solvation  Ediel_sol  =         0.00000000
  ---------------------------------------------------
  free energy    TOTEN  =       -33.87273420 eV

  energy without entropy =      -33.87273420  energy(sigma->0) =      -33.87273420


--------------------------------------------------------------------------------------------------------




--------------------------------------- Iteration      1(  18)  ---------------------------------------


    POTLOK:  cpu time   48.3680: real time   48.4292
    SETDIJ:  cpu time    0.1260: real time    0.1260
     EDDAV:  cpu time   18.7036: real time   18.7329
       DOS:  cpu time    0.0093: real time    0.0093
    CHARGE:  cpu time    5.3035: real time    5.3113
    MIXING:  cpu time    2.0912: real time    2.0935
    --------------------------------------------
      LOOP:  cpu time   74.6016: real time   74.7022

 eigenvalue-minimisations  :    32
 total energy-change (2. order) :-0.5243407E-03  (-0.1833348E-05)
 number of electron      16.0000000 magnetization 
 augmentation part        0.0577857 magnetization 

 Broyden mixing:
  rms(total) = 0.21058E-03    rms(broyden)= 0.21058E-03
  rms(prec ) = 0.27077E-03
  weight for this iteration     100.00

 eigenvalues of (default mixing * dielectric matrix)
  average eigenvalue GAMMA=   2.2442
  8.3378  4.6723  2.8754  2.4280  2.4280  1.4927  1.1599  1.1599  0.9578  0.9578
  0.9969  0.8617  0.8465

 Free energy of the ion-electron system (eV)
  ---------------------------------------------------
  alpha Z        PSCENC =         0.01586818
  Ewald energy   TEWEN  =       432.85541211
  -Hartree energ DENC   =     -1074.54774558
  -exchange      EXHF   =         0.00000000
  -V(xc)+E(xc)   XCENC  =        58.28382541
  PAW double counting   =      5621.12790298    -5621.47760801
  entropy T*S    EENTRO =        -0.00000000
  eigenvalues    EBANDS =      -209.49748905
  atomic energy  EATOM  =       759.36657541
  Solvation  Ediel_sol  =         0.00000000
  ---------------------------------------------------
  free energy    TOTEN  =       -33.87325854 eV

  energy without entropy =      -33.87325854  energy(sigma->0) =      -33.87325854


--------------------------------------------------------------------------------------------------------




--------------------------------------- Iteration      1(  19)  ---------------------------------------


    POTLOK:  cpu time   48.3526: real time   48.4134
    SETDIJ:  cpu time    0.1601: real time    0.1601
     EDDAV:  cpu time   21.9775: real time   22.0119
       DOS:  cpu time    0.0099: real time    0.0099
    CHARGE:  cpu time    5.3347: real time    5.3426
    MIXING:  cpu time    1.5633: real time    1.5656
    --------------------------------------------
      LOOP:  cpu time   77.3982: real time   77.5035

 eigenvalue-minimisations  :    40
 total energy-change (2. order) :-0.2164575E-03  (-0.5440028E-06)
 number of electron      16.0000000 magnetization 
 augmentation part        0.0577847 magnetization 

 Broyden mixing:
  rms(total) = 0.16155E-03    rms(broyden)= 0.16155E-03
  rms(prec ) = 0.18953E-03
  weight for this iteration     100.00

 eigenvalues of (default mixing * dielectric matrix)
  average eigenvalue GAMMA=   2.2478
  8.7220  4.8316  3.3336  2.4363  2.4363  1.6552  1.1530  1.1530  1.0791  1.0791
  0.9368  0.9368  0.8582  0.8582

 Free energy of the ion-electron system (eV)
  ---------------------------------------------------
  alpha Z        PSCENC =         0.01586818
  Ewald energy   TEWEN  =       432.85541211
  -Hartree energ DENC   =     -1074.54851990
  -exchange      EXHF   =         0.00000000
  -V(xc)+E(xc)   XCENC  =        58.28347139
  PAW double counting   =      5621.11533382    -5621.46501780
  entropy T*S    EENTRO =        -0.00000000
  eigenvalues    EBANDS =      -209.49659821
  atomic energy  EATOM  =       759.36657541
  Solvation  Ediel_sol  =         0.00000000
  ---------------------------------------------------
  free energy    TOTEN  =       -33.87347500 eV

  energy without entropy =      -33.87347500  energy(sigma->0) =      -33.87347500


--------------------------------------------------------------------------------------------------------




--------------------------------------- Iteration      1(  20)  ---------------------------------------


    POTLOK:  cpu time   48.3091: real time   48.3708
    SETDIJ:  cpu time    0.1363: real time    0.1364
     EDDAV:  cpu time   18.5797: real time   18.6104
       DOS:  cpu time    0.0092: real time    0.0092
    CHARGE:  cpu time    5.3238: real time    5.3317
    MIXING:  cpu time    2.1529: real time    2.1555
    --------------------------------------------
      LOOP:  cpu time   74.5110: real time   74.6139

 eigenvalue-minimisations  :    32
 total energy-change (2. order) :-0.1066575E-03  (-0.1245558E-06)
 number of electron      16.0000000 magnetization 
 augmentation part        0.0577814 magnetization 

 Broyden mixing:
  rms(total) = 0.14480E-03    rms(broyden)= 0.14480E-03
  rms(prec ) = 0.15553E-03
  weight for this iteration     100.00

 eigenvalues of (default mixing * dielectric matrix)
  average eigenvalue GAMMA=   2.2940
  9.0500  5.4471  3.6007  2.5266  2.3412  1.9117  1.7474  1.1415  1.1415  1.0101
  0.9416  0.9416  0.9092  0.8497  0.8497

 Free energy of the ion-electron system (eV)
  ---------------------------------------------------
  alpha Z        PSCENC =         0.01586818
  Ewald energy   TEWEN  =       432.85541211
  -Hartree energ DENC   =     -1074.55287561
  -exchange      EXHF   =         0.00000000
  -V(xc)+E(xc)   XCENC  =        58.28340342
  PAW double counting   =      5620.81188040    -5621.16156786
  entropy T*S    EENTRO =        -0.00000000
  eigenvalues    EBANDS =      -209.49227771
  atomic energy  EATOM  =       759.36657541
  Solvation  Ediel_sol  =         0.00000000
  ---------------------------------------------------
  free energy    TOTEN  =       -33.87358166 eV

  energy without entropy =      -33.87358166  energy(sigma->0) =      -33.87358166


--------------------------------------------------------------------------------------------------------




--------------------------------------- Iteration      1(  21)  ---------------------------------------


    POTLOK:  cpu time   48.2081: real time   48.2721
    SETDIJ:  cpu time    0.1538: real time    0.1539
     EDDAV:  cpu time   18.7170: real time   18.7459
       DOS:  cpu time    0.0112: real time    0.0112
    CHARGE:  cpu time    5.3235: real time    5.3311
    MIXING:  cpu time    1.9265: real time    1.9290
    --------------------------------------------
      LOOP:  cpu time   74.3401: real time   74.4431

 eigenvalue-minimisations  :    32
 total energy-change (2. order) :-0.5196599E-04  (-0.3663789E-07)
 number of electron      16.0000000 magnetization 
 augmentation part        0.0577814 magnetization 

 Broyden mixing:
  rms(total) = 0.81447E-04    rms(broyden)= 0.81447E-04
  rms(prec ) = 0.88277E-04
  weight for this iteration     100.00

 eigenvalues of (default mixing * dielectric matrix)
  average eigenvalue GAMMA=   2.4058
  9.2954  6.1473  4.1180  3.1445  2.4426  2.4343  1.5198  1.5198  1.1416  1.1416
  1.0614  0.9352  0.9352  0.8594  0.8594  0.9378

 Free energy of the ion-electron system (eV)
  ---------------------------------------------------
  alpha Z        PSCENC =         0.01586818
  Ewald energy   TEWEN  =       432.85541211
  -Hartree energ DENC   =     -1074.55401647
  -exchange      EXHF   =         0.00000000
  -V(xc)+E(xc)   XCENC  =        58.28335313
  PAW double counting   =      5620.93257489    -5621.28227117
  entropy T*S    EENTRO =        -0.00000000
  eigenvalues    EBANDS =      -209.49112971
  atomic energy  EATOM  =       759.36657541
  Solvation  Ediel_sol  =         0.00000000
  ---------------------------------------------------
  free energy    TOTEN  =       -33.87363363 eV

  energy without entropy =      -33.87363363  energy(sigma->0) =      -33.87363363


--------------------------------------------------------------------------------------------------------




--------------------------------------- Iteration      1(  22)  ---------------------------------------


    POTLOK:  cpu time   48.2391: real time   48.3009
    SETDIJ:  cpu time    0.1184: real time    0.1184
     EDDAV:  cpu time   15.1922: real time   15.2162
       DOS:  cpu time    0.0039: real time    0.0039
    CHARGE:  cpu time    5.3332: real time    5.3410
    MIXING:  cpu time    1.9304: real time    1.9329
    --------------------------------------------
      LOOP:  cpu time   70.8172: real time   70.9133

 eigenvalue-minimisations  :    24
 total energy-change (2. order) :-0.3960744E-04  (-0.3247239E-07)
 number of electron      16.0000000 magnetization 
 augmentation part        0.0577810 magnetization 

 Broyden mixing:
  rms(total) = 0.50131E-04    rms(broyden)= 0.50131E-04
  rms(prec ) = 0.52162E-04
  weight for this iteration     100.00

 eigenvalues of (default mixing * dielectric matrix)
  average eigenvalue GAMMA=   2.3620
  9.4129  6.3081  4.2502  3.0518  2.3962  2.3962  1.7824  1.7824  1.1519  1.1519
  0.9279  0.9279  0.9958  0.9958  0.8596  0.8596  0.9031

 Free energy of the ion-electron system (eV)
  ---------------------------------------------------
  alpha Z        PSCENC =         0.01586818
  Ewald energy   TEWEN  =       432.85541211
  -Hartree energ DENC   =     -1074.55589574
  -exchange      EXHF   =         0.00000000
  -V(xc)+E(xc)   XCENC  =        58.28337976
  PAW double counting   =      5621.12648243    -5621.47619777
  entropy T*S    EENTRO =        -0.00000000
  eigenvalues    EBANDS =      -209.48929761
  atomic energy  EATOM  =       759.36657541
  Solvation  Ediel_sol  =         0.00000000
  ---------------------------------------------------
  free energy    TOTEN  =       -33.87367323 eV

  energy without entropy =      -33.87367323  energy(sigma->0) =      -33.87367323


--------------------------------------------------------------------------------------------------------




--------------------------------------- Iteration      1(  23)  ---------------------------------------


    POTLOK:  cpu time   48.5020: real time   48.5634
    SETDIJ:  cpu time    0.1186: real time    0.1186
     EDDAV:  cpu time   15.1590: real time   15.1830
       DOS:  cpu time    0.0144: real time    0.0144
    CHARGE:  cpu time    5.2585: real time    5.2661
    MIXING:  cpu time    2.0083: real time    2.0111
    --------------------------------------------
      LOOP:  cpu time   71.0609: real time   71.1567

 eigenvalue-minimisations  :    24
 total energy-change (2. order) :-0.7091062E-05  (-0.2992847E-08)
 number of electron      16.0000000 magnetization 
 augmentation part        0.0577813 magnetization 

 Broyden mixing:
  rms(total) = 0.16324E-04    rms(broyden)= 0.16324E-04
  rms(prec ) = 0.19198E-04
  weight for this iteration     100.00

 eigenvalues of (default mixing * dielectric matrix)
  average eigenvalue GAMMA=   2.4256
  9.5271  6.7058  4.7015  3.4414  2.7577  2.3992  2.3992  1.6144  1.2896  1.1419
  1.1419  1.0831  0.9328  0.9328  0.9718  0.8582  0.8582  0.9037

 Free energy of the ion-electron system (eV)
  ---------------------------------------------------
  alpha Z        PSCENC =         0.01586818
  Ewald energy   TEWEN  =       432.85541211
  -Hartree energ DENC   =     -1074.55563233
  -exchange      EXHF   =         0.00000000
  -V(xc)+E(xc)   XCENC  =        58.28334395
  PAW double counting   =      5621.05887471    -5621.40858164
  entropy T*S    EENTRO =        -0.00000000
  eigenvalues    EBANDS =      -209.48954071
  atomic energy  EATOM  =       759.36657541
  Solvation  Ediel_sol  =         0.00000000
  ---------------------------------------------------
  free energy    TOTEN  =       -33.87368032 eV

  energy without entropy =      -33.87368032  energy(sigma->0) =      -33.87368032


--------------------------------------------------------------------------------------------------------




--------------------------------------- Iteration      1(  24)  ---------------------------------------


    POTLOK:  cpu time   48.6024: real time   48.6645
    SETDIJ:  cpu time    0.1317: real time    0.1317
     EDDAV:  cpu time   11.9090: real time   11.9277
       DOS:  cpu time    0.0122: real time    0.0122
    CHARGE:  cpu time    5.3531: real time    5.3608
    MIXING:  cpu time    2.3098: real time    2.3128
    --------------------------------------------
      LOOP:  cpu time   68.3183: real time   68.4097

 eigenvalue-minimisations  :    16
 total energy-change (2. order) :-0.8350659E-05  (-0.6488385E-08)
 number of electron      16.0000000 magnetization 
 augmentation part        0.0577819 magnetization 

 Broyden mixing:
  rms(total) = 0.13390E-04    rms(broyden)= 0.13390E-04
  rms(prec ) = 0.14263E-04
  weight for this iteration     100.00

 eigenvalues of (default mixing * dielectric matrix)
  average eigenvalue GAMMA=   2.4155
  9.5526  7.0407  4.8985  3.7487  2.7966  2.3820  2.3820  1.7149  1.7149  1.1602
  1.1602  1.0178  1.0178  0.9223  0.9223  0.9049  0.8654  0.8654  0.8279

 Free energy of the ion-electron system (eV)
  ---------------------------------------------------
  alpha Z        PSCENC =         0.01586818
  Ewald energy   TEWEN  =       432.85541211
  -Hartree energ DENC   =     -1074.55546900
  -exchange      EXHF   =         0.00000000
  -V(xc)+E(xc)   XCENC  =        58.28332475
  PAW double counting   =      5621.03153922    -5621.38124110
  entropy T*S    EENTRO =        -0.00000000
  eigenvalues    EBANDS =      -209.48969824
  atomic energy  EATOM  =       759.36657541
  Solvation  Ediel_sol  =         0.00000000
  ---------------------------------------------------
  free energy    TOTEN  =       -33.87368867 eV

  energy without entropy =      -33.87368867  energy(sigma->0) =      -33.87368867


--------------------------------------------------------------------------------------------------------




--------------------------------------- Iteration      1(  25)  ---------------------------------------


    POTLOK:  cpu time   48.4889: real time   48.5510
    SETDIJ:  cpu time    0.1181: real time    0.1182
     EDDAV:  cpu time   11.8780: real time   11.8969
       DOS:  cpu time    0.0145: real time    0.0145
    CHARGE:  cpu time    5.0145: real time    5.0222
    MIXING:  cpu time    2.4505: real time    2.4537
    --------------------------------------------
      LOOP:  cpu time   67.9645: real time   68.0564

 eigenvalue-minimisations  :    16
 total energy-change (2. order) :-0.1860286E-05  (-0.2931282E-08)
 number of electron      16.0000000 magnetization 
 augmentation part        0.0577818 magnetization 

 Broyden mixing:
  rms(total) = 0.97402E-05    rms(broyden)= 0.97402E-05
  rms(prec ) = 0.10233E-04
  weight for this iteration     100.00

 eigenvalues of (default mixing * dielectric matrix)
  average eigenvalue GAMMA=   2.4357
  9.6203  7.2914  5.1799  3.9186  3.0827  2.4107  2.4107  2.2069  1.9365  1.1609
  1.1609  1.0356  1.0356  0.9289  0.9289  0.9638  0.9638  0.8656  0.8656  0.7473

 Free energy of the ion-electron system (eV)
  ---------------------------------------------------
  alpha Z        PSCENC =         0.01586818
  Ewald energy   TEWEN  =       432.85541211
  -Hartree energ DENC   =     -1074.55566703
  -exchange      EXHF   =         0.00000000
  -V(xc)+E(xc)   XCENC  =        58.28333469
  PAW double counting   =      5621.04603372    -5621.39573798
  entropy T*S    EENTRO =        -0.00000000
  eigenvalues    EBANDS =      -209.48950963
  atomic energy  EATOM  =       759.36657541
  Solvation  Ediel_sol  =         0.00000000
  ---------------------------------------------------
  free energy    TOTEN  =       -33.87369053 eV

  energy without entropy =      -33.87369053  energy(sigma->0) =      -33.87369053


--------------------------------------------------------------------------------------------------------




--------------------------------------- Iteration      1(  26)  ---------------------------------------


    POTLOK:  cpu time   48.3825: real time   48.4442
    SETDIJ:  cpu time    0.1245: real time    0.1245
     EDDAV:  cpu time   11.8928: real time   11.9116
       DOS:  cpu time    0.0107: real time    0.0107
    CHARGE:  cpu time    5.0187: real time    5.0265
    MIXING:  cpu time    2.5064: real time    2.5096
    --------------------------------------------
      LOOP:  cpu time   67.9355: real time   68.0270

 eigenvalue-minimisations  :    16
 total energy-change (2. order) :-0.1526561E-05  (-0.2384915E-08)
 number of electron      16.0000000 magnetization 
 augmentation part        0.0577815 magnetization 

 Broyden mixing:
  rms(total) = 0.87728E-05    rms(broyden)= 0.87728E-05
  rms(prec ) = 0.89249E-05
  weight for this iteration     100.00

 eigenvalues of (default mixing * dielectric matrix)
  average eigenvalue GAMMA=   2.3910
  9.6521  7.3555  5.3601  3.9563  3.1615  2.4943  2.3641  2.2908  1.7940  1.1988
  1.1988  1.0934  1.0934  1.0380  0.9276  0.9276  0.9750  0.8546  0.8546  0.8102
  0.8102

 Free energy of the ion-electron system (eV)
  ---------------------------------------------------
  alpha Z        PSCENC =         0.01586818
  Ewald energy   TEWEN  =       432.85541211
  -Hartree energ DENC   =     -1074.55593826
  -exchange      EXHF   =         0.00000000
  -V(xc)+E(xc)   XCENC  =        58.28334532
  PAW double counting   =      5621.03267538    -5621.38238133
  entropy T*S    EENTRO =        -0.00000000
  eigenvalues    EBANDS =      -209.48924887
  atomic energy  EATOM  =       759.36657541
  Solvation  Ediel_sol  =         0.00000000
  ---------------------------------------------------
  free energy    TOTEN  =       -33.87369206 eV

  energy without entropy =      -33.87369206  energy(sigma->0) =      -33.87369206


--------------------------------------------------------------------------------------------------------




--------------------------------------- Iteration      1(  27)  ---------------------------------------


    POTLOK:  cpu time   48.1563: real time   48.2177
    SETDIJ:  cpu time    0.1147: real time    0.1148
     EDDAV:  cpu time   15.1339: real time   15.1578
       DOS:  cpu time    0.0100: real time    0.0100
    CHARGE:  cpu time    5.2498: real time    5.2578
    MIXING:  cpu time    2.2859: real time    2.2890
    --------------------------------------------
      LOOP:  cpu time   70.9506: real time   71.0470

 eigenvalue-minimisations  :    24
 total energy-change (2. order) :-0.3733389E-06  (-0.1570784E-08)
 number of electron      16.0000000 magnetization 
 augmentation part        0.0577815 magnetization 

 Broyden mixing:
  rms(total) = 0.45755E-05    rms(broyden)= 0.45755E-05
  rms(prec ) = 0.47436E-05
  weight for this iteration     100.00

 eigenvalues of (default mixing * dielectric matrix)
  average eigenvalue GAMMA=   2.3922
  9.6834  7.5122  5.4915  4.1021  3.0383  2.8269  2.3444  2.3444  1.8700  1.8700
  1.1655  1.1655  0.9472  0.9472  1.0358  1.0358  0.9275  0.9275  0.8651  0.8651
  0.9103  0.7528

 Free energy of the ion-electron system (eV)
  ---------------------------------------------------
  alpha Z        PSCENC =         0.01586818
  Ewald energy   TEWEN  =       432.85541211
  -Hartree energ DENC   =     -1074.55589051
  -exchange      EXHF   =         0.00000000
  -V(xc)+E(xc)   XCENC  =        58.28334216
  PAW double counting   =      5621.04432727    -5621.39403253
  entropy T*S    EENTRO =        -0.00000000
  eigenvalues    EBANDS =      -209.48929453
  atomic energy  EATOM  =       759.36657541
  Solvation  Ediel_sol  =         0.00000000
  ---------------------------------------------------
  free energy    TOTEN  =       -33.87369243 eV

  energy without entropy =      -33.87369243  energy(sigma->0) =      -33.87369243


--------------------------------------------------------------------------------------------------------




--------------------------------------- Iteration      1(  28)  ---------------------------------------


    POTLOK:  cpu time   48.4253: real time   48.4856
    SETDIJ:  cpu time    0.1209: real time    0.1210
     EDDAV:  cpu time   11.8957: real time   11.9144
       DOS:  cpu time    0.0129: real time    0.0129
    CHARGE:  cpu time    5.2624: real time    5.2702
    MIXING:  cpu time    2.3419: real time    2.3453
    --------------------------------------------
      LOOP:  cpu time   68.0591: real time   68.1493

 eigenvalue-minimisations  :    16
 total energy-change (2. order) :-0.3844339E-06  (-0.1269278E-08)
 number of electron      16.0000000 magnetization 
 augmentation part        0.0577815 magnetization 

 Broyden mixing:
  rms(total) = 0.18795E-05    rms(broyden)= 0.18795E-05
  rms(prec ) = 0.20276E-05
  weight for this iteration     100.00

 eigenvalues of (default mixing * dielectric matrix)
  average eigenvalue GAMMA=   2.4428
  9.6974  7.8604  5.9015  4.5496  3.4298  2.8206  2.4000  2.4000  2.4138  1.7989
  1.2890  1.1954  1.1954  1.0185  1.0185  0.9204  0.9204  0.9671  0.9671  0.8822
  0.8822  0.8572  0.7999

 Free energy of the ion-electron system (eV)
  ---------------------------------------------------
  alpha Z        PSCENC =         0.01586818
  Ewald energy   TEWEN  =       432.85541211
  -Hartree energ DENC   =     -1074.55580989
  -exchange      EXHF   =         0.00000000
  -V(xc)+E(xc)   XCENC  =        58.28333828
  PAW double counting   =      5621.04810911    -5621.39781426
  entropy T*S    EENTRO =        -0.00000000
  eigenvalues    EBANDS =      -209.48937175
  atomic energy  EATOM  =       759.36657541
  Solvation  Ediel_sol  =         0.00000000
  ---------------------------------------------------
  free energy    TOTEN  =       -33.87369282 eV

  energy without entropy =      -33.87369282  energy(sigma->0) =      -33.87369282


--------------------------------------------------------------------------------------------------------




--------------------------------------- Iteration      1(  29)  ---------------------------------------


    POTLOK:  cpu time   48.1343: real time   48.1959
    SETDIJ:  cpu time    0.1191: real time    0.1191
     EDDAV:  cpu time   11.8888: real time   11.9072
       DOS:  cpu time    0.0031: real time    0.0031
    CHARGE:  cpu time    4.9611: real time    4.9686
    MIXING:  cpu time    2.8108: real time    2.8145
    --------------------------------------------
      LOOP:  cpu time   67.9172: real time   68.0085

 eigenvalue-minimisations  :    16
 total energy-change (2. order) :-0.2376855E-06  (-0.1087914E-08)
 number of electron      16.0000000 magnetization 
 augmentation part        0.0577816 magnetization 

 Broyden mixing:
  rms(total) = 0.87936E-06    rms(broyden)= 0.87936E-06
  rms(prec ) = 0.95335E-06
  weight for this iteration     100.00

 eigenvalues of (default mixing * dielectric matrix)
  average eigenvalue GAMMA=   2.4058
  9.7357  7.9306  6.0871  4.6088  3.6219  2.8564  2.4145  2.4145  2.1645  1.7492
  1.5987  1.1620  1.1620  1.0986  1.0986  0.9559  0.9559  0.9292  0.9292  0.9594
  0.8611  0.8611  0.7916  0.7916

 Free energy of the ion-electron system (eV)
  ---------------------------------------------------
  alpha Z        PSCENC =         0.01586818
  Ewald energy   TEWEN  =       432.85541211
  -Hartree energ DENC   =     -1074.55576771
  -exchange      EXHF   =         0.00000000
  -V(xc)+E(xc)   XCENC  =        58.28333661
  PAW double counting   =      5621.04716782    -5621.39687282
  entropy T*S    EENTRO =        -0.00000000
  eigenvalues    EBANDS =      -209.48941265
  atomic energy  EATOM  =       759.36657541
  Solvation  Ediel_sol  =         0.00000000
  ---------------------------------------------------
  free energy    TOTEN  =       -33.87369306 eV

  energy without entropy =      -33.87369306  energy(sigma->0) =      -33.87369306


--------------------------------------------------------------------------------------------------------




--------------------------------------- Iteration      1(  30)  ---------------------------------------


    POTLOK:  cpu time   48.3299: real time   48.3909
    SETDIJ:  cpu time    0.1387: real time    0.1388
     EDDAV:  cpu time   15.1834: real time   15.2069
       DOS:  cpu time    0.0069: real time    0.0069
    --------------------------------------------
      LOOP:  cpu time   63.6589: real time   63.7434

 eigenvalue-minimisations  :    24
 total energy-change (2. order) :-0.4940057E-07  (-0.9888570E-09)
 number of electron      16.0000000 magnetization 
 augmentation part        0.0577816 magnetization 

 Free energy of the ion-electron system (eV)
  ---------------------------------------------------
  alpha Z        PSCENC =         0.01586818
  Ewald energy   TEWEN  =       432.85541211
  -Hartree energ DENC   =     -1074.55576472
  -exchange      EXHF   =         0.00000000
  -V(xc)+E(xc)   XCENC  =        58.28333631
  PAW double counting   =      5621.04482426    -5621.39452923
  entropy T*S    EENTRO =        -0.00000000
  eigenvalues    EBANDS =      -209.48941542
  atomic energy  EATOM  =       759.36657541
  Solvation  Ediel_sol  =         0.00000000
  ---------------------------------------------------
  free energy    TOTEN  =       -33.87369311 eV

  energy without entropy =      -33.87369311  energy(sigma->0) =      -33.87369311


--------------------------------------------------------------------------------------------------------




 average (electrostatic) potential at core
  the test charge radii are     0.4325  0.5902  0.5955
  (the norm of the test charge is              1.0000)
       1 -46.0517       2 -46.0217       3 -46.0512       4 -47.7360       5 -47.7355
       6-102.7573       7-119.6647
 
 
 
 E-fermi :  -5.9767     XC(G=0):  -0.0369     alpha+bet : -0.0072


 k-point     1 :       0.0000    0.0000    0.0000
  band No.  band energies     occupation 
      1     -25.4247      2.00000
      2     -21.0605      2.00000
      3     -13.2043      2.00000
      4     -11.1659      2.00000
      5     -11.1561      2.00000
      6      -9.4102      2.00000
      7      -7.2985      2.00000
      8      -6.0244      2.00000
      9      -1.0153      0.00000
     10      -0.5741      0.00000
     11       0.0006      0.00000
     12       0.0920      0.00000


--------------------------------------------------------------------------------------------------------


 soft charge-density along one line, spin component            1
         0         1         2         3         4         5         6         7         8         9
 total charge-density along one line
 
 pseudopotential strength for first ion, spin component:            1
 -2.529  -5.376  -0.003   0.006   0.003
 -5.376 -11.404  -0.006   0.015   0.008
 -0.003  -0.006  -1.393  -0.005  -0.003
  0.006   0.015  -0.005  -1.382   0.007
  0.003   0.008  -0.003   0.007  -1.392
 total augmentation occupancy for first ion, spin component:            1
  3.898  -0.648   0.099  -0.256  -0.125
 -0.648   0.126  -0.016   0.044   0.021
  0.099  -0.016   0.007  -0.004  -0.004
 -0.256   0.044  -0.004   0.020   0.005
 -0.125   0.021  -0.004   0.005   0.009


------------------------ aborting loop because EDIFF is reached ----------------------------------------



 DIPCOR: dipole corrections for dipol
 direction  1 min pos   484, direction  2 min pos   507, direction  3 min pos   520,
 dipolmoment           0.117591     -0.498105     -0.235574 electrons x Angstroem
 Tr[quadrupol]         2.308840

 energy correction for charged system         0.000000 eV
 dipol+quadrupol energy correction            0.000223 eV
 added-field ion interaction          0.000000 eV  (added to PSCEN)

 
  *************** adding dipol energy to TOTEN NOW **************** 
    CHARGE:  cpu time    5.3156: real time    5.3234
    FORLOC:  cpu time    3.3563: real time    3.3592
    FORNL :  cpu time    0.8192: real time    0.8205
    STRESS:  cpu time    9.9323: real time    9.9469
    FORCOR:  cpu time   46.6476: real time   46.7043
    FORHAR:  cpu time   14.7288: real time   14.7467
    MIXING:  cpu time    2.3852: real time    2.3888
    OFIELD:  cpu time    0.0000: real time    0.0000

  FORCE on cell =-STRESS in cart. coord.  units (eV):
  Direction    XX          YY          ZZ          XY          YZ          ZX
  --------------------------------------------------------------------------------------
  Alpha Z     0.01587     0.01587     0.01587
  Ewald     120.52162   265.97855    46.35525    16.49335   -28.18240    85.17335
  Hartree   313.28960   461.53470   299.73146     5.21385    -5.85133    15.38344
  E(xc)     -69.01302   -69.02356   -69.34128     0.05928    -0.11652     0.38013
  Local    -671.09211  -966.47094  -606.80621   -17.52111    25.70094   -73.43392
  n-local   -36.10661   -36.79881   -39.63494     0.64762    -1.32154     4.03078
  augment     0.62324     0.64806     0.94820    -0.02849     0.06913    -0.40952
  Kinetic   342.51270   344.78060   369.16828    -4.81415     9.59208   -30.76178
  Fock        0.00000     0.00000     0.00000     0.00000     0.00000     0.00000
  -------------------------------------------------------------------------------------
  Total       0.75128     0.66445     0.43662     0.05035    -0.10963     0.36247
  in kB       0.02807     0.02483     0.01632     0.00188    -0.00410     0.01354
  external pressure =        0.02 kB  Pullay stress =        0.00 kB


 VOLUME and BASIS-vectors are now :
 -----------------------------------------------------------------------------
  energy-cutoff  :     2000.00
  volume of cell :    42875.00
      direct lattice vectors                 reciprocal lattice vectors
    35.000000000  0.000000000  0.000000000     0.028571429  0.000000000  0.000000000
     0.000000000 35.000000000  0.000000000     0.000000000  0.028571429  0.000000000
     0.000000000  0.000000000 35.000000000     0.000000000  0.000000000  0.028571429

  length of vectors
    35.000000000 35.000000000 35.000000000     0.028571429  0.028571429  0.028571429


 FORCES acting on ions
    electron-ion (+dipol)            ewald-force                    non-local-force                 convergence-correction
 -----------------------------------------------------------------------------------------------
   -.312E+02 0.273E+02 -.597E+02   0.345E+02 -.298E+02 0.662E+02   -.311E+01 0.246E+01 -.615E+01   -.149E-06 0.681E-06 0.314E-06
   -.394E+01 -.670E+02 0.131E+01   0.429E+01 0.747E+02 -.133E+01   -.344E+00 -.733E+01 0.266E-01   -.196E-06 0.629E-06 0.322E-06
   0.689E+02 0.229E+02 0.130E+01   -.763E+02 -.250E+02 -.132E+01   0.704E+01 0.201E+01 0.268E-01   -.210E-06 0.684E-06 0.286E-06
   -.635E+02 -.514E+02 -.405E+02   0.698E+02 0.564E+02 0.446E+02   -.605E+01 -.475E+01 -.386E+01   0.476E-06 0.119E-06 0.909E-07
   0.562E+02 -.578E+02 0.427E+02   -.619E+02 0.634E+02 -.470E+02   0.536E+01 -.537E+01 0.407E+01   -.263E-06 0.159E-06 -.384E-06
   -.219E+02 0.324E+02 0.376E+02   0.370E+02 -.442E+02 -.633E+02   -.149E+02 0.116E+02 0.254E+02   -.222E-05 0.514E-05 0.357E-05
   0.392E+01 0.435E+02 -.116E+01   -.744E+01 -.955E+02 0.218E+01   0.349E+01 0.515E+02 -.101E+01   0.614E-06 0.229E-06 -.890E-06
 -----------------------------------------------------------------------------------------------
   0.853E+01 -.502E+02 -.185E+02   -.320E-13 -.142E-13 0.155E-13   -.853E+01 0.502E+02 0.185E+02   -.195E-05 0.764E-05 0.331E-05
 
 
 POSITION                                       TOTAL-FORCE (eV/Angst)
 -----------------------------------------------------------------------------------
      0.36010      0.02459      0.72875         0.147764     -0.112497      0.313886
     34.98243      1.36087     34.88400         0.008655      0.374855      0.007074
     33.97356      0.08603     34.88402        -0.353225     -0.087063      0.008457
      0.67595      6.91624      0.32603         0.296625      0.211279      0.188318
     34.43237      6.98340     34.46116        -0.263752      0.240806     -0.201436
     34.95053      0.34950     34.86212         0.197456     -0.169202     -0.330765
      0.01395      6.36014     34.90563        -0.033524     -0.458179      0.014465
 -----------------------------------------------------------------------------------
    total drift:                               -0.000007     -0.000001     -0.000011


--------------------------------------------------------------------------------------------------------



  FREE ENERGIE OF THE ION-ELECTRON SYSTEM (eV)
  ---------------------------------------------------
  free  energy   TOTEN  =       -33.87346982 eV

  energy  without entropy=      -33.87346982  energy(sigma->0) =      -33.87346982
 


--------------------------------------------------------------------------------------------------------


    POTLOK:  cpu time   48.3930: real time   48.4534


--------------------------------------------------------------------------------------------------------


 writing wavefunctions
     LOOP+:  cpu time 3009.7557: real time 3013.2414
    4ORBIT:  cpu time    0.0000: real time    0.0000

 total amount of memory used by VASP MPI-rank0  7822733. kBytes
=======================================================================

   base      :      30000. kBytes
   nonl-proj :     165447. kBytes
   fftplans  :    2602168. kBytes
   grid      :    4972871. kBytes
   one-center:          1. kBytes
   wavefun   :      52246. kBytes
 
  
  
 General timing and accounting informations for this job:
 ========================================================
  
                  Total CPU time used (sec):     4064.262
                            User time (sec):     3902.375
                          System time (sec):      161.887
                         Elapsed time (sec):     4068.932
  
                   Maximum memory used (kb):    10343548.
                   Average memory used (kb):           0.
  
                          Minor page faults:    154760686
                          Major page faults:          207
                 Voluntary context switches:         2195
