 vasp.6.1.2 22Jul20 (build Jan  6 2021 09:55:43) gamma-only                      
 executed on             LinuxPGI date 2021.04.01  22:35:56
 running on   16 total cores
 distrk:  each k-point on   16 cores,    1 groups
 distr:  one band on NCORE=   8 cores,    2 groups


--------------------------------------------------------------------------------------------------------


 INCAR:
 POTCAR:    PAW_PBE H_h 06Feb2004                 
 POTCAR:    PAW_PBE N_h 06Feb2004                 
 POTCAR:    PAW_PBE O_h 06Feb2004                 
 POTCAR:    PAW_PBE H_h 06Feb2004                 
   VRHFIN =H: ultrasoft test                                                                        
   LEXCH  = PE                                                                                      
   EATOM  =    12.4884 eV,    0.9179 Ry                                                             
                                                                                                    
   TITEL  = PAW_PBE H_h 06Feb2004                                                                   
   LULTRA =        F    use ultrasoft PP ?                                                          
   IUNSCR =        0    unscreen: 0-lin 1-nonlin 2-no                                               
   RPACOR =    0.000    partial core radius                                                         
   POMASS =    1.000; ZVAL   =    1.000    mass and valenz                                          
   RCORE  =    0.800    outmost cutoff radius                                                       
   RWIGS  =    0.700; RWIGS  =    0.370    wigner-seitz radius (au A)                               
   ENMAX  =  700.000; ENMIN  =  350.000 eV                                                          
   RCLOC  =    0.701    cutoff for local pot                                                        
   LCOR   =        T    correct aug charges                                                         
   LPAW   =        T    paw PP                                                                      
   EAUG   = 1000.000                                                                                
   RMAX   =    0.819    core radius for proj-oper                                                   
   RAUG   =    1.000    factor for augmentation sphere                                              
   RDEP   =    0.817    radius for radial grids                                                     
   RDEPT  =    0.817    core radius for aug-charge                                                  
                                                                                                    
   Atomic configuration                                                                             
    2 entries                                                                                       
     n  l   j            E        occ.                                                              
     1  0  0.50        -6.4927   1.0000                                                             
     2  1  0.50        -3.4015   0.0000                                                             
   Description                                                                                      
     l       E           TYP  RCUT    TYP  RCUT                                                     
     0     -6.4927493     23  0.800                                                                 
     0      6.8029130     23  0.800                                                                 
     1     -6.8029130     23  0.800                                                                 
  local pseudopotential read in
  atomic valenz-charges read in
  non local Contribution for L=            0  read in
    real space projection operators read in
  non local Contribution for L=            0  read in
    real space projection operators read in
  non local Contribution for L=            1  read in
    real space projection operators read in
    PAW grid and wavefunctions read in
 
   number of l-projection  operators is LMAX  =            3
   number of lm-projection operators is LMMAX =            5
 
 POTCAR:    PAW_PBE N_h 06Feb2004                 
   VRHFIN =N: s2p3                                                                                  
   LEXCH  = PE                                                                                      
   EATOM  =   264.5486 eV,   19.4438 Ry                                                             
                                                                                                    
   TITEL  = PAW_PBE N_h 06Feb2004                                                                   
   LULTRA =        F    use ultrasoft PP ?                                                          
   IUNSCR =        1    unscreen: 0-lin 1-nonlin 2-no                                               
   RPACOR =    0.800    partial core radius                                                         
   POMASS =   14.001; ZVAL   =    5.000    mass and valenz                                          
   RCORE  =    1.100    outmost cutoff radius                                                       
   RWIGS  =    1.480; RWIGS  =    0.783    wigner-seitz radius (au A)                               
   ENMAX  =  700.000; ENMIN  =  500.000 eV                                                          
   ICORE  =        2    local potential                                                             
   LCOR   =        T    correct aug charges                                                         
   LPAW   =        T    paw PP                                                                      
   EAUG   =  904.640                                                                                
   DEXC   =    0.000                                                                                
   RMAX   =    1.127    core radius for proj-oper                                                   
   RAUG   =    1.300    factor for augmentation sphere                                              
   RDEP   =    1.115    radius for radial grids                                                     
   RDEPT  =    1.106    core radius for aug-charge                                                  
                                                                                                    
   Atomic configuration                                                                             
    4 entries                                                                                       
     n  l   j            E        occ.                                                              
     1  0  0.50      -384.7179   2.0000                                                             
     2  0  0.50       -18.5828   2.0000                                                             
     2  1  0.50        -7.0898   3.0000                                                             
     3  2  1.50        -6.8029   0.0000                                                             
   Description                                                                                      
     l       E           TYP  RCUT    TYP  RCUT                                                     
     0    -18.5828117     23  1.100                                                                 
     0    -15.0750597     23  1.100                                                                 
     1     -7.0897851     23  1.100                                                                 
     1     -1.9663412     23  1.100                                                                 
     2     -6.8029130      7  1.100                                                                 
  local pseudopotential read in
  partial core-charges read in
  partial kinetic energy density read in
  kinetic energy density of atom read in
  atomic valenz-charges read in
  non local Contribution for L=            0  read in
    real space projection operators read in
  non local Contribution for L=            0  read in
    real space projection operators read in
  non local Contribution for L=            1  read in
    real space projection operators read in
  non local Contribution for L=            1  read in
    real space projection operators read in
    PAW grid and wavefunctions read in
 
   number of l-projection  operators is LMAX  =            4
   number of lm-projection operators is LMMAX =            8
 
 POTCAR:    PAW_PBE O_h 06Feb2004                 
   VRHFIN =O: s2p4                                                                                  
   LEXCH  = PE                                                                                      
   EATOM  =   432.3788 eV,   31.7789 Ry                                                             
                                                                                                    
   TITEL  = PAW_PBE O_h 06Feb2004                                                                   
   LULTRA =        F    use ultrasoft PP ?                                                          
   IUNSCR =        1    unscreen: 0-lin 1-nonlin 2-no                                               
   RPACOR =    0.800    partial core radius                                                         
   POMASS =   16.000; ZVAL   =    6.000    mass and valenz                                          
   RCORE  =    1.100    outmost cutoff radius                                                       
   RWIGS  =    1.400; RWIGS  =    0.741    wigner-seitz radius (au A)                               
   ENMAX  =  700.000; ENMIN  =  500.000 eV                                                          
   ICORE  =        2    local potential                                                             
   LCOR   =        T    correct aug charges                                                         
   LPAW   =        T    paw PP                                                                      
   EAUG   =  888.804                                                                                
   DEXC   =    0.000                                                                                
   RMAX   =    1.128    core radius for proj-oper                                                   
   RAUG   =    1.300    factor for augmentation sphere                                              
   RDEP   =    1.125    radius for radial grids                                                     
   RDEPT  =    1.088    core radius for aug-charge                                                  
                                                                                                    
   Atomic configuration                                                                             
    4 entries                                                                                       
     n  l   j            E        occ.                                                              
     1  0  0.50      -514.6923   2.0000                                                             
     2  0  0.50       -23.9615   2.0000                                                             
     2  1  0.50        -9.0305   4.0000                                                             
     3  2  1.50        -9.5241   0.0000                                                             
   Description                                                                                      
     l       E           TYP  RCUT    TYP  RCUT                                                     
     0    -23.9615319     23  1.100                                                                 
     0    -25.3221145     23  1.100                                                                 
     1     -9.0304911     23  1.100                                                                 
     1     -5.4802209     23  1.100                                                                 
     2     -9.5240782      7  1.100                                                                 
  local pseudopotential read in
  partial core-charges read in
  partial kinetic energy density read in
  atomic valenz-charges read in
  non local Contribution for L=            0  read in
    real space projection operators read in
  non local Contribution for L=            0  read in
    real space projection operators read in
  non local Contribution for L=            1  read in
    real space projection operators read in
  non local Contribution for L=            1  read in
    real space projection operators read in
    PAW grid and wavefunctions read in
 
   number of l-projection  operators is LMAX  =            4
   number of lm-projection operators is LMMAX =            8
 
  PAW_PBE H_h 06Feb2004                 :
 energy of atom  1       EATOM=  -12.4884
 kinetic energy error for atom=    0.0001 (will be added to EATOM!!)
  PAW_PBE N_h 06Feb2004                 :
 energy of atom  2       EATOM= -264.5486
 kinetic energy error for atom=    0.0009 (will be added to EATOM!!)
  PAW_PBE O_h 06Feb2004                 :
 energy of atom  3       EATOM= -432.3788
 kinetic energy error for atom=    0.0016 (will be added to EATOM!!)
 
 
 POSCAR:  H  N  O
  positions in cartesian coordinates
  No initial velocities read in
 exchange correlation table for  LEXCH =        8
   RHO(1)=    0.500       N(1)  =     2000
   RHO(2)=  100.500       N(2)  =     4000
 


--------------------------------------------------------------------------------------------------------


 ion  position               nearest neighbor table
   1  0.010  0.001  0.021-   6 1.01
   2  0.999  0.039  0.997-   6 1.01
   3  0.971  0.002  0.997-   6 1.01
   4  0.019  0.180  0.009-   7 0.96
   5  0.984  0.182  0.985-   7 0.96
   6  0.999  0.010  0.996-   3 1.01   2 1.01   1 1.01
   7  0.000  0.165  0.997-   5 0.96   4 0.96
 
  LATTYP: Found a simple cubic cell.
 ALAT       =    35.0000000000
  
  Lattice vectors:
  
 A1 = (  35.0000000000,   0.0000000000,   0.0000000000)
 A2 = (   0.0000000000,  35.0000000000,   0.0000000000)
 A3 = (   0.0000000000,   0.0000000000,  35.0000000000)


Analysis of symmetry for initial positions (statically):
=====================================================================
 Subroutine PRICEL returns:
 Original cell was already a primitive cell.
 

 Routine SETGRP: Setting up the symmetry group for a 
 simple cubic supercell.


 Subroutine GETGRP returns: Found  1 space group operations
 (whereof  1 operations were pure point group operations)
 out of a pool of 48 trial point group operations.


The static configuration has the point symmetry C_1 .


Analysis of symmetry for dynamics (positions and initial velocities):
=====================================================================
 Subroutine PRICEL returns:
 Original cell was already a primitive cell.
 

 Routine SETGRP: Setting up the symmetry group for a 
 simple cubic supercell.


 Subroutine GETGRP returns: Found  1 space group operations
 (whereof  1 operations were pure point group operations)
 out of a pool of 48 trial point group operations.


The dynamic configuration has the point symmetry C_1 .


 Subroutine INISYM returns: Found  1 space group operations
 (whereof  1 operations are pure point group operations),
 and found     1 'primitive' translations


----------------------------------------------------------------------------------------

                                     Primitive cell                                     

  volume of cell :   42875.0000

  direct lattice vectors                    reciprocal lattice vectors
    35.000000000  0.000000000  0.000000000     0.028571429  0.000000000  0.000000000
     0.000000000 35.000000000  0.000000000     0.000000000  0.028571429  0.000000000
     0.000000000  0.000000000 35.000000000     0.000000000  0.000000000  0.028571429

  length of vectors
    35.000000000 35.000000000 35.000000000     0.028571429  0.028571429  0.028571429

  position of ions in fractional coordinates (direct lattice)
     0.010288498  0.000702679  0.020821486
     0.999498008  0.038882065  0.996685848
     0.970673256  0.002458017  0.996686295
     0.019312931  0.180464035  0.009315050
     0.983782053  0.182382820  0.984604577
     0.998586675  0.009985768  0.996060442
     0.000398437  0.164575473  0.997303770

  ion indices of the primitive-cell ions
   primitive index   ion index
                 1           1
                 2           2
                 3           3
                 4           4
                 5           5
                 6           6
                 7           7

----------------------------------------------------------------------------------------

 
 
 KPOINTS: automatic mesh                          

Automatic generation of k-mesh.
Space group operators:
 irot       det(A)        alpha          n_x          n_y          n_z        tau_x        tau_y        tau_z
    1     1.000000     0.000000     1.000000     0.000000     0.000000     0.000000     0.000000     0.000000
 
 Subroutine IBZKPT returns following result:
 ===========================================
 
 Found      1 irreducible k-points:
 
 Following reciprocal coordinates:
            Coordinates               Weight
  0.000000  0.000000  0.000000      1.000000
 
 Following cartesian coordinates:
            Coordinates               Weight
  0.000000  0.000000  0.000000      1.000000
 


--------------------------------------------------------------------------------------------------------




 Dimension of arrays:
   k-points           NKPTS =      1   k-points in BZ     NKDIM =      1   number of bands    NBANDS=     12
   number of dos      NEDOS =    301   number of ions     NIONS =      7
   non local maximal  LDIM  =      4   non local SUM 2l+1 LMDIM =      8
   total plane-waves  NPLWV = ******
   max r-space proj   IRMAX =      1   max aug-charges    IRDMAX=  23028
   dimension x,y,z NGX =   512 NGY =  512 NGZ =  512
   dimension x,y,z NGXF=  1024 NGYF= 1024 NGZF= 1024
   support grid    NGXF=  1024 NGYF= 1024 NGZF= 1024
   ions per type =               5   1   1
   NGX,Y,Z   is equivalent  to a cutoff of  24.32, 24.32, 24.32 a.u.
   NGXF,Y,Z  is equivalent  to a cutoff of  48.64, 48.64, 48.64 a.u.

 SYSTEM =  C                                       
 POSCAR =   H  N  O                                

 Startparameter for this run:
   NWRITE =      2    write-flag & timer
   PREC   = acc       normal or accurate (medium, high low for compatibility)
   ISTART =      0    job   : 0-new  1-cont  2-samecut
   ICHARG =      2    charge: 1-file 2-atom 10-const
   ISPIN  =      1    spin polarized calculation?
   LNONCOLLINEAR =      F non collinear calculations
   LSORBIT =      F    spin-orbit coupling
   INIWAV =      1    electr: 0-lowe 1-rand  2-diag
   LASPH  =      T    aspherical Exc in radial PAW
   METAGGA=      F    non-selfconsistent MetaGGA calc.

 Electronic Relaxation 1
   ENCUT  = 2000.0 eV 147.00 Ry   12.12 a.u. 127.63127.63127.63*2*pi/ulx,y,z
   ENINI  = 2000.0     initial cutoff
   ENAUG  = 1000.0 eV  augmentation charge cutoff
   NELM   =     60;   NELMIN=  2; NELMDL= -5     # of ELM steps 
   EDIFF  = 0.1E-06   stopping-criterion for ELM
   LREAL  =      F    real-space projection
   NLSPLINE    = F    spline interpolate recip. space projectors
   LCOMPAT=      F    compatible to vasp.4.4
   GGA_COMPAT  = T    GGA compatible to vasp.4.4-vasp.4.6
   LMAXPAW     = -100 max onsite density
   LMAXMIX     =    2 max onsite mixed and CHGCAR
   VOSKOWN=      0    Vosko Wilk Nusair interpolation
   ROPT   =    0.00000   0.00000   0.00000
 Ionic relaxation
   EDIFFG = 0.1E-05   stopping-criterion for IOM
   NSW    =      0    number of steps for IOM
   NBLOCK =      1;   KBLOCK =      1    inner block; outer block 
   IBRION =     -1    ionic relax: 0-MD 1-quasi-New 2-CG
   NFREE  =      0    steps in history (QN), initial steepest desc. (CG)
   ISIF   =      2    stress and relaxation
   IWAVPR =     10    prediction:  0-non 1-charg 2-wave 3-comb
   ISYM   =      2    0-nonsym 1-usesym 2-fastsym
   LCORR  =      T    Harris-Foulkes like correction to forces

   POTIM  = 0.5000    time-step for ionic-motion
   TEIN   =    0.0    initial temperature
   TEBEG  =    0.0;   TEEND  =   0.0 temperature during run
   SMASS  =  -3.00    Nose mass-parameter (am)
   estimated Nose-frequenzy (Omega)   =  0.10E-29 period in steps = 0.13E+47 mass=  -0.280E-25a.u.
   SCALEE = 1.0000    scale energy and forces
   NPACO  =    256;   APACO  = 16.0  distance and # of slots for P.C.
   PSTRESS=    0.0 pullay stress

  Mass of Ions in am
   POMASS =   1.00 14.00 16.00
  Ionic Valenz
   ZVAL   =   1.00  5.00  6.00
  Atomic Wigner-Seitz radii
   RWIGS  =  -1.00 -1.00 -1.00
  virtual crystal weights 
   VCA    =   1.00  1.00  1.00
   NELECT =      16.0000    total number of electrons
   NUPDOWN=      -1.0000    fix difference up-down

 DOS related values:
   EMIN   =  10.00;   EMAX   =-10.00  energy-range for DOS
   EFERMI =   0.00
   ISMEAR =     0;   SIGMA  =   0.01  broadening in eV -4-tet -1-fermi 0-gaus

 Electronic relaxation 2 (details)
   IALGO  =     38    algorithm
   LDIAG  =      T    sub-space diagonalisation (order eigenvalues)
   LSUBROT=      F    optimize rotation matrix (better conditioning)
   TURBO    =      0    0=normal 1=particle mesh
   IRESTART =      0    0=no restart 2=restart with 2 vectors
   NREBOOT  =      0    no. of reboots
   NMIN     =      0    reboot dimension
   EREF     =   0.00    reference energy to select bands
   IMIX   =      4    mixing-type and parameters
     AMIX     =   0.40;   BMIX     =  1.00
     AMIX_MAG =   1.60;   BMIX_MAG =  1.00
     AMIN     =   0.10
     WC   =   100.;   INIMIX=   1;  MIXPRE=   1;  MAXMIX= -45

 Intra band minimization:
   WEIMIN = 0.0000     energy-eigenvalue tresh-hold
   EBREAK =  0.21E-08  absolut break condition
   DEPER  =   0.30     relativ break condition  

   TIME   =   0.40     timestep for ELM

  volume/ion in A,a.u.               =    6125.00     41333.54
  Fermi-wavevector in a.u.,A,eV,Ry     =   0.117864  0.222730  0.189010  0.013892
  Thomas-Fermi vector in A             =   0.732055
 
 Write flags
   LWAVE        =      T    write WAVECAR
   LDOWNSAMPLE  =      F    k-point downsampling of WAVECAR
   LCHARG       =      T    write CHGCAR
   LVTOT        =      F    write LOCPOT, total local potential
   LVHAR        =      F    write LOCPOT, Hartree potential only
   LELF         =      F    write electronic localiz. function (ELF)
   LORBIT       =      0    0 simple, 1 ext, 2 COOP (PROOUT), +10 PAW based schemes


 Dipole corrections
   LMONO  =      F    monopole corrections only (constant potential shift)
   LDIPOL =      F    correct potential (dipole corrections)
   IDIPOL =      4    1-x, 2-y, 3-z, 4-all directions 
   EPSILON=  1.0000000 bulk dielectric constant

 Exchange correlation treatment:
   GGA     =    --    GGA type
   LEXCH   =     8    internal setting for exchange type
   VOSKOWN=      0    Vosko Wilk Nusair interpolation
   LHFCALC =     F    Hartree Fock is set to
   LHFONE  =     F    Hartree Fock one center treatment
   AEXX    =    0.0000 exact exchange contribution

 Linear response parameters
   LEPSILON=     F    determine dielectric tensor
   LRPA    =     F    only Hartree local field effects (RPA)
   LNABLA  =     F    use nabla operator in PAW spheres
   LVEL    =     F    velocity operator in full k-point grid
   LINTERFAST=   F  fast interpolation
   KINTER  =     0    interpolate to denser k-point grid
   CSHIFT  =0.1000    complex shift for real part using Kramers Kronig
   OMEGAMAX=  -1.0    maximum frequency
   DEG_THRESHOLD= 0.2000000E-02 threshold for treating states as degnerate
   RTIME   =   -0.100 relaxation time in fs
  (WPLASMAI=    0.000 imaginary part of plasma frequency in eV, 0.658/RTIME)
   DFIELD  = 0.0000000 0.0000000 0.0000000 field for delta impulse in time
 
 Orbital magnetization related:
   ORBITALMAG=     F  switch on orbital magnetization
   LCHIMAG   =     F  perturbation theory with respect to B field
   DQ        =  0.001000  dq finite difference perturbation B field
   LLRAUG    =     F  two centre corrections for induced B field



--------------------------------------------------------------------------------------------------------


 Static calculation
 charge density and potential will be updated during run
 non-spin polarized calculation
 Variant of blocked Davidson
 Davidson routine will perform the subspace rotation
 perform sub-space diagonalisation
    after iterative eigenvector-optimisation
 modified Broyden-mixing scheme, WC =      100.0
 initial mixing is a Kerker type mixing with AMIX =  0.4000 and BMIX =      1.0000
 Hartree-type preconditioning will be used
 using additional bands             4
 reciprocal scheme for non local part
 use partial core corrections
 calculate Harris-corrections to forces 
   (improved forces if not selfconsistent)
 use gradient corrections 
 use of overlap-Matrix (Vanderbilt PP)
 Gauss-broadening in eV      SIGMA  =   0.01


--------------------------------------------------------------------------------------------------------


  energy-cutoff  :     2000.00
  volume of cell :    42875.00
      direct lattice vectors                 reciprocal lattice vectors
    35.000000000  0.000000000  0.000000000     0.028571429  0.000000000  0.000000000
     0.000000000 35.000000000  0.000000000     0.000000000  0.028571429  0.000000000
     0.000000000  0.000000000 35.000000000     0.000000000  0.000000000  0.028571429

  length of vectors
    35.000000000 35.000000000 35.000000000     0.028571429  0.028571429  0.028571429


 
 k-points in units of 2pi/SCALE and weight: automatic mesh                          
   0.00000000  0.00000000  0.00000000       1.000
 
 k-points in reciprocal lattice and weights: automatic mesh                          
   0.00000000  0.00000000  0.00000000       1.000
 
 position of ions in fractional coordinates (direct lattice) 
   0.01028850  0.00070268  0.02082149
   0.99949801  0.03888207  0.99668585
   0.97067326  0.00245802  0.99668630
   0.01931293  0.18046404  0.00931505
   0.98378205  0.18238282  0.98460458
   0.99858668  0.00998577  0.99606044
   0.00039844  0.16457547  0.99730377
 
 position of ions in cartesian coordinates  (Angst):
   0.36009743  0.02459378  0.72875202
  34.98243028  1.36087229 34.88400467
  33.97356397  0.08603060 34.88402033
   0.67595257  6.31624124  0.32602674
  34.43237184  6.38339870 34.46116020
  34.95053363  0.34950188 34.86211549
   0.01394528  5.76014156 34.90563195
 


--------------------------------------------------------------------------------------------------------


 use parallel FFT for orbitals z direction half grid
 k-point   1 :   0.0000 0.0000 0.0000  plane waves: 4353902

 maximum and minimum number of plane-waves per node :    544247   544233

 maximum number of plane-waves:   4353902
 maximum index in each direction: 
   IXMAX=  127   IYMAX=  127   IZMAX=  127
   IXMIN= -127   IYMIN= -127   IZMIN=    0


 parallel 3D FFT for wavefunctions:
    minimum data exchange during FFTs selected (reduces bandwidth)
 parallel 3D FFT for charge:
    minimum data exchange during FFTs selected (reduces bandwidth)


 total amount of memory used by VASP MPI-rank0  7822733. kBytes
=======================================================================

   base      :      30000. kBytes
   nonl-proj :     165447. kBytes
   fftplans  :    2602168. kBytes
   grid      :    4972871. kBytes
   one-center:          1. kBytes
   wavefun   :      52246. kBytes
 
     INWAV:  cpu time    0.0000: real time    0.0000
 Broyden mixing: mesh for mixing (old mesh)
   NGX =255   NGY =255   NGZ =255
  (NGX  =***   NGY  =***   NGZ  =***)
  gives a total of ****** points

 initial charge density was supplied:
 charge density of overlapping atoms calculated
 number of electron      16.0000000 magnetization 
 keeping initial charge density in first step


--------------------------------------------------------------------------------------------------------


 Maximum index for augmentation-charges          1247 (set IRDMAX)


--------------------------------------------------------------------------------------------------------


 First call to EWALD:  gamma=   0.051
 Maximum number of real-space cells 3x 3x 3
 Maximum number of reciprocal cells 3x 3x 3

    FEWALD:  cpu time    0.0011: real time    0.0011


--------------------------------------- Iteration      1(   1)  ---------------------------------------


    POTLOK:  cpu time   42.0051: real time   42.0479
    SETDIJ:  cpu time    0.0560: real time    0.0586
     EDDAV:  cpu time   14.8529: real time   14.8898
       DOS:  cpu time    0.0123: real time    0.0123
    --------------------------------------------
      LOOP:  cpu time   56.9263: real time   57.0085

 eigenvalue-minimisations  :    24
 total energy-change (2. order) : 0.1905716E+03  (-0.2668445E+03)
 number of electron      16.0000000 magnetization 
 augmentation part       16.0000000 magnetization 

 Free energy of the ion-electron system (eV)
  ---------------------------------------------------
  alpha Z        PSCENC =         0.01586818
  Ewald energy   TEWEN  =       449.10439214
  -Hartree energ DENC   =     -1013.67135959
  -exchange      EXHF   =         0.00000000
  -V(xc)+E(xc)   XCENC  =        54.00925630
  PAW double counting   =       558.51391053     -558.42352984
  entropy T*S    EENTRO =        -0.00000000
  eigenvalues    EBANDS =       -58.34347163
  atomic energy  EATOM  =       759.36657541
  Solvation  Ediel_sol  =         0.00000000
  ---------------------------------------------------
  free energy    TOTEN  =       190.57164150 eV

  energy without entropy =      190.57164150  energy(sigma->0) =      190.57164150


--------------------------------------------------------------------------------------------------------




--------------------------------------- Iteration      1(   2)  ---------------------------------------


     EDDAV:  cpu time   18.0811: real time   18.1064
       DOS:  cpu time    0.0035: real time    0.0035
    --------------------------------------------
      LOOP:  cpu time   18.0847: real time   18.1099

 eigenvalue-minimisations  :    32
 total energy-change (2. order) :-0.7844995E+02  (-0.6332177E+02)
 number of electron      16.0000000 magnetization 
 augmentation part       16.0000000 magnetization 

 Free energy of the ion-electron system (eV)
  ---------------------------------------------------
  alpha Z        PSCENC =         0.01586818
  Ewald energy   TEWEN  =       449.10439214
  -Hartree energ DENC   =     -1013.67135959
  -exchange      EXHF   =         0.00000000
  -V(xc)+E(xc)   XCENC  =        54.00925630
  PAW double counting   =       558.51391053     -558.42352984
  entropy T*S    EENTRO =        -0.00000000
  eigenvalues    EBANDS =      -136.79341946
  atomic energy  EATOM  =       759.36657541
  Solvation  Ediel_sol  =         0.00000000
  ---------------------------------------------------
  free energy    TOTEN  =       112.12169367 eV

  energy without entropy =      112.12169367  energy(sigma->0) =      112.12169367


--------------------------------------------------------------------------------------------------------




--------------------------------------- Iteration      1(   3)  ---------------------------------------


     EDDAV:  cpu time   24.5410: real time   24.5900
       DOS:  cpu time    0.0157: real time    0.0157
    --------------------------------------------
      LOOP:  cpu time   24.5568: real time   24.6057

 eigenvalue-minimisations  :    48
 total energy-change (2. order) :-0.1106805E+03  (-0.1099793E+03)
 number of electron      16.0000000 magnetization 
 augmentation part       16.0000000 magnetization 

 Free energy of the ion-electron system (eV)
  ---------------------------------------------------
  alpha Z        PSCENC =         0.01586818
  Ewald energy   TEWEN  =       449.10439214
  -Hartree energ DENC   =     -1013.67135959
  -exchange      EXHF   =         0.00000000
  -V(xc)+E(xc)   XCENC  =        54.00925630
  PAW double counting   =       558.51391053     -558.42352984
  entropy T*S    EENTRO =        -0.00000000
  eigenvalues    EBANDS =      -247.47390885
  atomic energy  EATOM  =       759.36657541
  Solvation  Ediel_sol  =         0.00000000
  ---------------------------------------------------
  free energy    TOTEN  =         1.44120427 eV

  energy without entropy =        1.44120427  energy(sigma->0) =        1.44120427


--------------------------------------------------------------------------------------------------------




--------------------------------------- Iteration      1(   4)  ---------------------------------------


     EDDAV:  cpu time   19.7988: real time   19.8244
       DOS:  cpu time    0.0020: real time    0.0020
    --------------------------------------------
      LOOP:  cpu time   19.8008: real time   19.8264

 eigenvalue-minimisations  :    36
 total energy-change (2. order) :-0.3637271E+02  (-0.3629457E+02)
 number of electron      16.0000000 magnetization 
 augmentation part       16.0000000 magnetization 

 Free energy of the ion-electron system (eV)
  ---------------------------------------------------
  alpha Z        PSCENC =         0.01586818
  Ewald energy   TEWEN  =       449.10439214
  -Hartree energ DENC   =     -1013.67135959
  -exchange      EXHF   =         0.00000000
  -V(xc)+E(xc)   XCENC  =        54.00925630
  PAW double counting   =       558.51391053     -558.42352984
  entropy T*S    EENTRO =        -0.00000000
  eigenvalues    EBANDS =      -283.84661972
  atomic energy  EATOM  =       759.36657541
  Solvation  Ediel_sol  =         0.00000000
  ---------------------------------------------------
  free energy    TOTEN  =       -34.93150660 eV

  energy without entropy =      -34.93150660  energy(sigma->0) =      -34.93150660


--------------------------------------------------------------------------------------------------------




--------------------------------------- Iteration      1(   5)  ---------------------------------------


     EDDAV:  cpu time   18.1567: real time   18.1800
       DOS:  cpu time    0.0180: real time    0.0180
    CHARGE:  cpu time    4.9891: real time    4.9947
    MIXING:  cpu time    0.8868: real time    0.8877
    --------------------------------------------
      LOOP:  cpu time   24.0507: real time   24.0804

 eigenvalue-minimisations  :    32
 total energy-change (2. order) :-0.4066981E+01  (-0.4064828E+01)
 number of electron      16.0000000 magnetization 
 augmentation part        0.1234792 magnetization 

 Broyden mixing:
  rms(total) = 0.20727E+01    rms(broyden)= 0.20727E+01
  rms(prec ) = 0.20970E+01
  weight for this iteration     100.00

 Free energy of the ion-electron system (eV)
  ---------------------------------------------------
  alpha Z        PSCENC =         0.01586818
  Ewald energy   TEWEN  =       449.10439214
  -Hartree energ DENC   =     -1013.67135959
  -exchange      EXHF   =         0.00000000
  -V(xc)+E(xc)   XCENC  =        54.00925630
  PAW double counting   =       558.51391053     -558.42352984
  entropy T*S    EENTRO =        -0.00000000
  eigenvalues    EBANDS =      -287.91360103
  atomic energy  EATOM  =       759.36657541
  Solvation  Ediel_sol  =         0.00000000
  ---------------------------------------------------
  free energy    TOTEN  =       -38.99848790 eV

  energy without entropy =      -38.99848790  energy(sigma->0) =      -38.99848790


--------------------------------------------------------------------------------------------------------




--------------------------------------- Iteration      1(   6)  ---------------------------------------


    POTLOK:  cpu time   41.6910: real time   41.7372
    SETDIJ:  cpu time    0.0416: real time    0.0417
     EDDAV:  cpu time   16.5362: real time   16.5593
       DOS:  cpu time    0.0032: real time    0.0032
    CHARGE:  cpu time    4.7362: real time    4.7417
    MIXING:  cpu time    0.9634: real time    0.9771
    --------------------------------------------
      LOOP:  cpu time   63.9716: real time   64.0603

 eigenvalue-minimisations  :    28
 total energy-change (2. order) : 0.4629589E+01  (-0.1663418E+01)
 number of electron      16.0000000 magnetization 
 augmentation part        0.0619883 magnetization 

 Broyden mixing:
  rms(total) = 0.15998E+01    rms(broyden)= 0.15998E+01
  rms(prec ) = 0.16032E+01
  weight for this iteration     100.00

 eigenvalues of (default mixing * dielectric matrix)
  average eigenvalue GAMMA=   0.9459
  0.9459

 Free energy of the ion-electron system (eV)
  ---------------------------------------------------
  alpha Z        PSCENC =         0.01586818
  Ewald energy   TEWEN  =       449.10439214
  -Hartree energ DENC   =     -1061.38769731
  -exchange      EXHF   =         0.00000000
  -V(xc)+E(xc)   XCENC  =        56.62135899
  PAW double counting   =      1561.40035351    -1561.81888705
  entropy T*S    EENTRO =        -0.00000000
  eigenvalues    EBANDS =      -237.67086284
  atomic energy  EATOM  =       759.36657541
  Solvation  Ediel_sol  =         0.00000000
  ---------------------------------------------------
  free energy    TOTEN  =       -34.36889897 eV

  energy without entropy =      -34.36889897  energy(sigma->0) =      -34.36889897


--------------------------------------------------------------------------------------------------------




--------------------------------------- Iteration      1(   7)  ---------------------------------------


    POTLOK:  cpu time   41.7565: real time   41.7984
    SETDIJ:  cpu time    0.0416: real time    0.0416
     EDDAV:  cpu time   19.7019: real time   19.7295
       DOS:  cpu time    0.0029: real time    0.0029
    CHARGE:  cpu time    4.7003: real time    4.7058
    MIXING:  cpu time    1.0138: real time    1.0155
    --------------------------------------------
      LOOP:  cpu time   67.2170: real time   67.2937

 eigenvalue-minimisations  :    36
 total energy-change (2. order) : 0.2823283E+00  (-0.1278454E+00)
 number of electron      16.0000000 magnetization 
 augmentation part        0.0568500 magnetization 

 Broyden mixing:
  rms(total) = 0.10622E+01    rms(broyden)= 0.10622E+01
  rms(prec ) = 0.10641E+01
  weight for this iteration     100.00

 eigenvalues of (default mixing * dielectric matrix)
  average eigenvalue GAMMA=   1.7539
  0.9869  2.5208

 Free energy of the ion-electron system (eV)
  ---------------------------------------------------
  alpha Z        PSCENC =         0.01586818
  Ewald energy   TEWEN  =       449.10439214
  -Hartree energ DENC   =     -1073.34661700
  -exchange      EXHF   =         0.00000000
  -V(xc)+E(xc)   XCENC  =        57.34194514
  PAW double counting   =      3053.77145839    -3054.19298199
  entropy T*S    EENTRO =        -0.00000000
  eigenvalues    EBANDS =      -226.14721093
  atomic energy  EATOM  =       759.36657541
  Solvation  Ediel_sol  =         0.00000000
  ---------------------------------------------------
  free energy    TOTEN  =       -34.08657067 eV

  energy without entropy =      -34.08657067  energy(sigma->0) =      -34.08657067


--------------------------------------------------------------------------------------------------------




--------------------------------------- Iteration      1(   8)  ---------------------------------------


    POTLOK:  cpu time   41.8946: real time   41.9363
    SETDIJ:  cpu time    0.0422: real time    0.0422
     EDDAV:  cpu time   18.0873: real time   18.1104
       DOS:  cpu time    0.0014: real time    0.0014
    CHARGE:  cpu time    4.6802: real time    4.6856
    MIXING:  cpu time    1.0562: real time    1.0573
    --------------------------------------------
      LOOP:  cpu time   65.7619: real time   65.8332

 eigenvalue-minimisations  :    32
 total energy-change (2. order) : 0.2291158E+00  (-0.2821849E-01)
 number of electron      16.0000000 magnetization 
 augmentation part        0.0623555 magnetization 

 Broyden mixing:
  rms(total) = 0.29576E+00    rms(broyden)= 0.29576E+00
  rms(prec ) = 0.29653E+00
  weight for this iteration     100.00

 eigenvalues of (default mixing * dielectric matrix)
  average eigenvalue GAMMA=   1.3135
  2.0005  0.9699  0.9699

 Free energy of the ion-electron system (eV)
  ---------------------------------------------------
  alpha Z        PSCENC =         0.01586818
  Ewald energy   TEWEN  =       449.10439214
  -Hartree energ DENC   =     -1084.39494006
  -exchange      EXHF   =         0.00000000
  -V(xc)+E(xc)   XCENC  =        58.13848581
  PAW double counting   =      6620.99648061    -6621.32253958
  entropy T*S    EENTRO =        -0.00000000
  eigenvalues    EBANDS =      -215.76177734
  atomic energy  EATOM  =       759.36657541
  Solvation  Ediel_sol  =         0.00000000
  ---------------------------------------------------
  free energy    TOTEN  =       -33.85745483 eV

  energy without entropy =      -33.85745483  energy(sigma->0) =      -33.85745483


--------------------------------------------------------------------------------------------------------




--------------------------------------- Iteration      1(   9)  ---------------------------------------


    POTLOK:  cpu time   41.8842: real time   41.9351
    SETDIJ:  cpu time    0.0594: real time    0.0594
     EDDAV:  cpu time   21.2904: real time   21.3215
       DOS:  cpu time    0.0007: real time    0.0007
    CHARGE:  cpu time    4.7849: real time    4.7903
    MIXING:  cpu time    1.0453: real time    1.0463
    --------------------------------------------
      LOOP:  cpu time   69.0649: real time   69.1533

 eigenvalue-minimisations  :    40
 total energy-change (2. order) :-0.2491949E-02  (-0.4271727E-02)
 number of electron      16.0000000 magnetization 
 augmentation part        0.0586935 magnetization 

 Broyden mixing:
  rms(total) = 0.46891E-01    rms(broyden)= 0.46891E-01
  rms(prec ) = 0.50166E-01
  weight for this iteration     100.00

 eigenvalues of (default mixing * dielectric matrix)
  average eigenvalue GAMMA=   1.3913
  1.8434  1.8434  0.9393  0.9393

 Free energy of the ion-electron system (eV)
  ---------------------------------------------------
  alpha Z        PSCENC =         0.01586818
  Ewald energy   TEWEN  =       449.10439214
  -Hartree energ DENC   =     -1085.04340755
  -exchange      EXHF   =         0.00000000
  -V(xc)+E(xc)   XCENC  =        58.12114952
  PAW double counting   =      5812.64661217    -5813.00485304
  entropy T*S    EENTRO =        -0.00000000
  eigenvalues    EBANDS =      -215.06628359
  atomic energy  EATOM  =       759.36657541
  Solvation  Ediel_sol  =         0.00000000
  ---------------------------------------------------
  free energy    TOTEN  =       -33.85994678 eV

  energy without entropy =      -33.85994678  energy(sigma->0) =      -33.85994678


--------------------------------------------------------------------------------------------------------




--------------------------------------- Iteration      1(  10)  ---------------------------------------


    POTLOK:  cpu time   41.8811: real time   41.9228
    SETDIJ:  cpu time    0.0556: real time    0.0556
     EDDAV:  cpu time   18.1478: real time   18.1779
       DOS:  cpu time    0.0025: real time    0.0025
    CHARGE:  cpu time    4.6795: real time    4.6851
    MIXING:  cpu time    1.1404: real time    1.1416
    --------------------------------------------
      LOOP:  cpu time   65.9069: real time   65.9854

 eigenvalue-minimisations  :    32
 total energy-change (2. order) : 0.5183950E-02  (-0.4526713E-03)
 number of electron      16.0000000 magnetization 
 augmentation part        0.0586632 magnetization 

 Broyden mixing:
  rms(total) = 0.22488E-01    rms(broyden)= 0.22488E-01
  rms(prec ) = 0.25632E-01
  weight for this iteration     100.00

 eigenvalues of (default mixing * dielectric matrix)
  average eigenvalue GAMMA=   1.5689
  2.4475  2.4475  1.0797  0.9348  0.9348

 Free energy of the ion-electron system (eV)
  ---------------------------------------------------
  alpha Z        PSCENC =         0.01586818
  Ewald energy   TEWEN  =       449.10439214
  -Hartree energ DENC   =     -1087.03405750
  -exchange      EXHF   =         0.00000000
  -V(xc)+E(xc)   XCENC  =        58.20808260
  PAW double counting   =      5734.83478886    -5735.19063018
  entropy T*S    EENTRO =        -0.00000000
  eigenvalues    EBANDS =      -213.15978233
  atomic energy  EATOM  =       759.36657541
  Solvation  Ediel_sol  =         0.00000000
  ---------------------------------------------------
  free energy    TOTEN  =       -33.85476283 eV

  energy without entropy =      -33.85476283  energy(sigma->0) =      -33.85476283


--------------------------------------------------------------------------------------------------------




--------------------------------------- Iteration      1(  11)  ---------------------------------------


    POTLOK:  cpu time   41.8744: real time   41.9158
    SETDIJ:  cpu time    0.0499: real time    0.0499
     EDDAV:  cpu time   18.2025: real time   18.2302
       DOS:  cpu time    0.0099: real time    0.0099
    CHARGE:  cpu time    4.7299: real time    4.7354
    MIXING:  cpu time    1.1055: real time    1.1067
    --------------------------------------------
      LOOP:  cpu time   65.9720: real time   66.0479

 eigenvalue-minimisations  :    32
 total energy-change (2. order) :-0.2750588E-03  (-0.5088285E-03)
 number of electron      16.0000000 magnetization 
 augmentation part        0.0580208 magnetization 

 Broyden mixing:
  rms(total) = 0.88605E-02    rms(broyden)= 0.88605E-02
  rms(prec ) = 0.11672E-01
  weight for this iteration     100.00

 eigenvalues of (default mixing * dielectric matrix)
  average eigenvalue GAMMA=   1.6019
  2.6101  2.6101  1.5161  0.8990  0.8990  1.0769

 Free energy of the ion-electron system (eV)
  ---------------------------------------------------
  alpha Z        PSCENC =         0.01586818
  Ewald energy   TEWEN  =       449.10439214
  -Hartree energ DENC   =     -1089.02210266
  -exchange      EXHF   =         0.00000000
  -V(xc)+E(xc)   XCENC  =        58.28361193
  PAW double counting   =      5647.35856404    -5647.71339711
  entropy T*S    EENTRO =        -0.00000000
  eigenvalues    EBANDS =      -211.24854981
  atomic energy  EATOM  =       759.36657541
  Solvation  Ediel_sol  =         0.00000000
  ---------------------------------------------------
  free energy    TOTEN  =       -33.85503789 eV

  energy without entropy =      -33.85503789  energy(sigma->0) =      -33.85503789


--------------------------------------------------------------------------------------------------------




--------------------------------------- Iteration      1(  12)  ---------------------------------------


    POTLOK:  cpu time   42.0363: real time   42.0786
    SETDIJ:  cpu time    0.0429: real time    0.0429
     EDDAV:  cpu time   19.7666: real time   19.7920
       DOS:  cpu time    0.0075: real time    0.0075
    CHARGE:  cpu time    4.6664: real time    4.6718
    MIXING:  cpu time    1.2210: real time    1.2223
    --------------------------------------------
      LOOP:  cpu time   67.7407: real time   67.8150

 eigenvalue-minimisations  :    36
 total energy-change (2. order) :-0.5856247E-02  (-0.1364806E-03)
 number of electron      16.0000000 magnetization 
 augmentation part        0.0582442 magnetization 

 Broyden mixing:
  rms(total) = 0.57249E-02    rms(broyden)= 0.57249E-02
  rms(prec ) = 0.78068E-02
  weight for this iteration     100.00

 eigenvalues of (default mixing * dielectric matrix)
  average eigenvalue GAMMA=   1.6361
  3.2717  2.3441  1.4951  1.4951  1.0466  0.8999  0.8999

 Free energy of the ion-electron system (eV)
  ---------------------------------------------------
  alpha Z        PSCENC =         0.01586818
  Ewald energy   TEWEN  =       449.10439214
  -Hartree energ DENC   =     -1089.59673271
  -exchange      EXHF   =         0.00000000
  -V(xc)+E(xc)   XCENC  =        58.28321330
  PAW double counting   =      5622.70514863    -5623.05599930
  entropy T*S    EENTRO =        -0.00000000
  eigenvalues    EBANDS =      -210.68335978
  atomic energy  EATOM  =       759.36657541
  Solvation  Ediel_sol  =         0.00000000
  ---------------------------------------------------
  free energy    TOTEN  =       -33.86089413 eV

  energy without entropy =      -33.86089413  energy(sigma->0) =      -33.86089413


--------------------------------------------------------------------------------------------------------




--------------------------------------- Iteration      1(  13)  ---------------------------------------


    POTLOK:  cpu time   41.9036: real time   41.9481
    SETDIJ:  cpu time    0.0419: real time    0.0419
     EDDAV:  cpu time   19.7439: real time   19.7695
       DOS:  cpu time    0.0024: real time    0.0024
    CHARGE:  cpu time    4.7252: real time    4.7358
    MIXING:  cpu time    1.1943: real time    1.1956
    --------------------------------------------
      LOOP:  cpu time   67.6112: real time   67.6932

 eigenvalue-minimisations  :    36
 total energy-change (2. order) :-0.4989618E-02  (-0.1118840E-03)
 number of electron      16.0000000 magnetization 
 augmentation part        0.0579282 magnetization 

 Broyden mixing:
  rms(total) = 0.55012E-02    rms(broyden)= 0.55012E-02
  rms(prec ) = 0.65191E-02
  weight for this iteration     100.00

 eigenvalues of (default mixing * dielectric matrix)
  average eigenvalue GAMMA=   1.8146
  4.6593  2.4506  2.4134  1.1033  1.1033  0.9582  0.9582  0.8701

 Free energy of the ion-electron system (eV)
  ---------------------------------------------------
  alpha Z        PSCENC =         0.01586818
  Ewald energy   TEWEN  =       449.10439214
  -Hartree energ DENC   =     -1090.28700892
  -exchange      EXHF   =         0.00000000
  -V(xc)+E(xc)   XCENC  =        58.29582877
  PAW double counting   =      5609.52633310    -5609.87755091
  entropy T*S    EENTRO =        -0.00000000
  eigenvalues    EBANDS =      -210.01032152
  atomic energy  EATOM  =       759.36657541
  Solvation  Ediel_sol  =         0.00000000
  ---------------------------------------------------
  free energy    TOTEN  =       -33.86588375 eV

  energy without entropy =      -33.86588375  energy(sigma->0) =      -33.86588375


--------------------------------------------------------------------------------------------------------




--------------------------------------- Iteration      1(  14)  ---------------------------------------


    POTLOK:  cpu time   41.9344: real time   41.9761
    SETDIJ:  cpu time    0.0583: real time    0.0583
     EDDAV:  cpu time   19.7793: real time   19.8056
       DOS:  cpu time    0.0082: real time    0.0082
    CHARGE:  cpu time    4.7550: real time    4.7604
    MIXING:  cpu time    1.1870: real time    1.1883
    --------------------------------------------
      LOOP:  cpu time   67.7222: real time   67.7970

 eigenvalue-minimisations  :    36
 total energy-change (2. order) :-0.4931049E-02  (-0.1001627E-03)
 number of electron      16.0000000 magnetization 
 augmentation part        0.0579444 magnetization 

 Broyden mixing:
  rms(total) = 0.23793E-02    rms(broyden)= 0.23793E-02
  rms(prec ) = 0.30556E-02
  weight for this iteration     100.00

 eigenvalues of (default mixing * dielectric matrix)
  average eigenvalue GAMMA=   1.8926
  5.2371  2.9342  2.3409  1.4291  1.4291  0.9830  0.9830  0.8851  0.8118

 Free energy of the ion-electron system (eV)
  ---------------------------------------------------
  alpha Z        PSCENC =         0.01586818
  Ewald energy   TEWEN  =       449.10439214
  -Hartree energ DENC   =     -1090.74466003
  -exchange      EXHF   =         0.00000000
  -V(xc)+E(xc)   XCENC  =        58.29531217
  PAW double counting   =      5617.87640258    -5618.22614458
  entropy T*S    EENTRO =        -0.00000000
  eigenvalues    EBANDS =      -209.55856067
  atomic energy  EATOM  =       759.36657541
  Solvation  Ediel_sol  =         0.00000000
  ---------------------------------------------------
  free energy    TOTEN  =       -33.87081480 eV

  energy without entropy =      -33.87081480  energy(sigma->0) =      -33.87081480


--------------------------------------------------------------------------------------------------------




--------------------------------------- Iteration      1(  15)  ---------------------------------------


    POTLOK:  cpu time   41.9658: real time   42.0070
    SETDIJ:  cpu time    0.0500: real time    0.0500
     EDDAV:  cpu time   21.2892: real time   21.3187
       DOS:  cpu time    0.0082: real time    0.0082
    CHARGE:  cpu time    4.7320: real time    4.7375
    MIXING:  cpu time    1.2620: real time    1.2634
    --------------------------------------------
      LOOP:  cpu time   69.3071: real time   69.3848

 eigenvalue-minimisations  :    40
 total energy-change (2. order) :-0.3859073E-02  (-0.4671836E-04)
 number of electron      16.0000000 magnetization 
 augmentation part        0.0578816 magnetization 

 Broyden mixing:
  rms(total) = 0.20948E-02    rms(broyden)= 0.20948E-02
  rms(prec ) = 0.23501E-02
  weight for this iteration     100.00

 eigenvalues of (default mixing * dielectric matrix)
  average eigenvalue GAMMA=   2.0862
  6.6029  3.5236  2.3889  2.3889  1.1503  1.1503  0.9678  0.9678  0.8235  0.8978

 Free energy of the ion-electron system (eV)
  ---------------------------------------------------
  alpha Z        PSCENC =         0.01586818
  Ewald energy   TEWEN  =       449.10439214
  -Hartree energ DENC   =     -1090.87243038
  -exchange      EXHF   =         0.00000000
  -V(xc)+E(xc)   XCENC  =        58.29066010
  PAW double counting   =      5627.48701687    -5627.83705415
  entropy T*S    EENTRO =        -0.00000000
  eigenvalues    EBANDS =      -209.42970204
  atomic energy  EATOM  =       759.36657541
  Solvation  Ediel_sol  =         0.00000000
  ---------------------------------------------------
  free energy    TOTEN  =       -33.87467387 eV

  energy without entropy =      -33.87467387  energy(sigma->0) =      -33.87467387


--------------------------------------------------------------------------------------------------------




--------------------------------------- Iteration      1(  16)  ---------------------------------------


    POTLOK:  cpu time   41.9716: real time   42.0215
    SETDIJ:  cpu time    0.0503: real time    0.0503
     EDDAV:  cpu time   18.1388: real time   18.1663
       DOS:  cpu time    0.0091: real time    0.0091
    CHARGE:  cpu time    4.6831: real time    4.6886
    MIXING:  cpu time    1.3399: real time    1.3414
    --------------------------------------------
      LOOP:  cpu time   66.1928: real time   66.2773

 eigenvalue-minimisations  :    32
 total energy-change (2. order) :-0.2256132E-02  (-0.2489394E-04)
 number of electron      16.0000000 magnetization 
 augmentation part        0.0578604 magnetization 

 Broyden mixing:
  rms(total) = 0.90124E-03    rms(broyden)= 0.90124E-03
  rms(prec ) = 0.10402E-02
  weight for this iteration     100.00

 eigenvalues of (default mixing * dielectric matrix)
  average eigenvalue GAMMA=   2.1659
  7.6407  3.7292  2.7118  2.3021  1.4481  1.1865  1.1865  0.9455  0.9455  0.8646
  0.8646

 Free energy of the ion-electron system (eV)
  ---------------------------------------------------
  alpha Z        PSCENC =         0.01586818
  Ewald energy   TEWEN  =       449.10439214
  -Hartree energ DENC   =     -1090.91204555
  -exchange      EXHF   =         0.00000000
  -V(xc)+E(xc)   XCENC  =        58.28597979
  PAW double counting   =      5618.21291207    -5618.56317620
  entropy T*S    EENTRO =        -0.00000000
  eigenvalues    EBANDS =      -209.38743583
  atomic energy  EATOM  =       759.36657541
  Solvation  Ediel_sol  =         0.00000000
  ---------------------------------------------------
  free energy    TOTEN  =       -33.87693000 eV

  energy without entropy =      -33.87693000  energy(sigma->0) =      -33.87693000


--------------------------------------------------------------------------------------------------------




--------------------------------------- Iteration      1(  17)  ---------------------------------------


    POTLOK:  cpu time   41.8580: real time   41.9023
    SETDIJ:  cpu time    0.0509: real time    0.0509
     EDDAV:  cpu time   21.3398: real time   21.3741
       DOS:  cpu time    0.0089: real time    0.0089
    CHARGE:  cpu time    4.7176: real time    4.7230
    MIXING:  cpu time    1.4202: real time    1.4217
    --------------------------------------------
      LOOP:  cpu time   69.3954: real time   69.4810

 eigenvalue-minimisations  :    40
 total energy-change (2. order) :-0.8298537E-03  (-0.4366817E-05)
 number of electron      16.0000000 magnetization 
 augmentation part        0.0578535 magnetization 

 Broyden mixing:
  rms(total) = 0.54114E-03    rms(broyden)= 0.54114E-03
  rms(prec ) = 0.62040E-03
  weight for this iteration     100.00

 eigenvalues of (default mixing * dielectric matrix)
  average eigenvalue GAMMA=   2.1869
  8.0154  4.0885  2.4856  2.3927  2.3927  1.1609  1.1609  0.9487  0.9487  0.9394
  0.8544  0.8544

 Free energy of the ion-electron system (eV)
  ---------------------------------------------------
  alpha Z        PSCENC =         0.01586818
  Ewald energy   TEWEN  =       449.10439214
  -Hartree energ DENC   =     -1090.94128885
  -exchange      EXHF   =         0.00000000
  -V(xc)+E(xc)   XCENC  =        58.28550401
  PAW double counting   =      5619.19564034    -5619.54579422
  entropy T*S    EENTRO =        -0.00000000
  eigenvalues    EBANDS =      -209.35865687
  atomic energy  EATOM  =       759.36657541
  Solvation  Ediel_sol  =         0.00000000
  ---------------------------------------------------
  free energy    TOTEN  =       -33.87775986 eV

  energy without entropy =      -33.87775986  energy(sigma->0) =      -33.87775986


--------------------------------------------------------------------------------------------------------




--------------------------------------- Iteration      1(  18)  ---------------------------------------


    POTLOK:  cpu time   41.8467: real time   41.8894
    SETDIJ:  cpu time    0.0562: real time    0.0562
     EDDAV:  cpu time   18.0652: real time   18.0896
       DOS:  cpu time    0.0001: real time    0.0001
    CHARGE:  cpu time    4.6570: real time    4.6623
    MIXING:  cpu time    1.4493: real time    1.4509
    --------------------------------------------
      LOOP:  cpu time   66.0746: real time   66.1485

 eigenvalue-minimisations  :    32
 total energy-change (2. order) :-0.4341945E-03  (-0.1218378E-05)
 number of electron      16.0000000 magnetization 
 augmentation part        0.0578574 magnetization 

 Broyden mixing:
  rms(total) = 0.22660E-03    rms(broyden)= 0.22660E-03
  rms(prec ) = 0.28847E-03
  weight for this iteration     100.00

 eigenvalues of (default mixing * dielectric matrix)
  average eigenvalue GAMMA=   2.2532
  8.3673  4.7894  3.0042  2.4319  2.4319  1.2972  1.2972  0.9549  0.9549  1.0541
  0.9814  0.8817  0.8454

 Free energy of the ion-electron system (eV)
  ---------------------------------------------------
  alpha Z        PSCENC =         0.01586818
  Ewald energy   TEWEN  =       449.10439214
  -Hartree energ DENC   =     -1090.93366053
  -exchange      EXHF   =         0.00000000
  -V(xc)+E(xc)   XCENC  =        58.28407640
  PAW double counting   =      5619.58607876    -5619.93611259
  entropy T*S    EENTRO =        -0.00000000
  eigenvalues    EBANDS =      -209.36541182
  atomic energy  EATOM  =       759.36657541
  Solvation  Ediel_sol  =         0.00000000
  ---------------------------------------------------
  free energy    TOTEN  =       -33.87819405 eV

  energy without entropy =      -33.87819405  energy(sigma->0) =      -33.87819405


--------------------------------------------------------------------------------------------------------




--------------------------------------- Iteration      1(  19)  ---------------------------------------


    POTLOK:  cpu time   41.7849: real time   41.8341
    SETDIJ:  cpu time    0.0565: real time    0.0565
     EDDAV:  cpu time   18.2545: real time   18.2815
       DOS:  cpu time    0.0084: real time    0.0084
    CHARGE:  cpu time    4.6597: real time    4.6652
    MIXING:  cpu time    1.4638: real time    1.4655
    --------------------------------------------
      LOOP:  cpu time   66.2278: real time   66.3112

 eigenvalue-minimisations  :    32
 total energy-change (2. order) :-0.2474565E-03  (-0.7311922E-06)
 number of electron      16.0000000 magnetization 
 augmentation part        0.0578583 magnetization 

 Broyden mixing:
  rms(total) = 0.15518E-03    rms(broyden)= 0.15518E-03
  rms(prec ) = 0.18366E-03
  weight for this iteration     100.00

 eigenvalues of (default mixing * dielectric matrix)
  average eigenvalue GAMMA=   2.3094
  8.8676  5.1806  3.4932  2.5461  2.3859  1.8824  1.1327  1.1327  1.0592  1.0592
  0.9367  0.9367  0.8592  0.8592

 Free energy of the ion-electron system (eV)
  ---------------------------------------------------
  alpha Z        PSCENC =         0.01586818
  Ewald energy   TEWEN  =       449.10439214
  -Hartree energ DENC   =     -1090.93085589
  -exchange      EXHF   =         0.00000000
  -V(xc)+E(xc)   XCENC  =        58.28347032
  PAW double counting   =      5619.06540039    -5619.41539615
  entropy T*S    EENTRO =        -0.00000000
  eigenvalues    EBANDS =      -209.36789590
  atomic energy  EATOM  =       759.36657541
  Solvation  Ediel_sol  =         0.00000000
  ---------------------------------------------------
  free energy    TOTEN  =       -33.87844151 eV

  energy without entropy =      -33.87844151  energy(sigma->0) =      -33.87844151


--------------------------------------------------------------------------------------------------------




--------------------------------------- Iteration      1(  20)  ---------------------------------------


    POTLOK:  cpu time   41.7237: real time   41.7725
    SETDIJ:  cpu time    0.0419: real time    0.0419
     EDDAV:  cpu time   21.3707: real time   21.4022
       DOS:  cpu time    0.0091: real time    0.0091
    CHARGE:  cpu time    4.7919: real time    4.7973
    MIXING:  cpu time    1.4858: real time    1.4875
    --------------------------------------------
      LOOP:  cpu time   69.4230: real time   69.5106

 eigenvalue-minimisations  :    40
 total energy-change (2. order) :-0.1184946E-03  (-0.1499573E-06)
 number of electron      16.0000000 magnetization 
 augmentation part        0.0578540 magnetization 

 Broyden mixing:
  rms(total) = 0.99164E-04    rms(broyden)= 0.99164E-04
  rms(prec ) = 0.11141E-03
  weight for this iteration     100.00

 eigenvalues of (default mixing * dielectric matrix)
  average eigenvalue GAMMA=   2.3148
  9.0588  5.6028  3.6149  2.6474  2.2954  2.2954  1.3358  1.1219  1.1219  1.1030
  0.9516  0.9516  0.9234  0.8488  0.8488

 Free energy of the ion-electron system (eV)
  ---------------------------------------------------
  alpha Z        PSCENC =         0.01586818
  Ewald energy   TEWEN  =       449.10439214
  -Hartree energ DENC   =     -1090.93647673
  -exchange      EXHF   =         0.00000000
  -V(xc)+E(xc)   XCENC  =        58.28344716
  PAW double counting   =      5619.04619336    -5619.39620016
  entropy T*S    EENTRO =        -0.00000000
  eigenvalues    EBANDS =      -209.36235936
  atomic energy  EATOM  =       759.36657541
  Solvation  Ediel_sol  =         0.00000000
  ---------------------------------------------------
  free energy    TOTEN  =       -33.87856000 eV

  energy without entropy =      -33.87856000  energy(sigma->0) =      -33.87856000


--------------------------------------------------------------------------------------------------------




--------------------------------------- Iteration      1(  21)  ---------------------------------------


    POTLOK:  cpu time   41.6820: real time   41.7294
    SETDIJ:  cpu time    0.0445: real time    0.0446
     EDDAV:  cpu time   14.9116: real time   14.9330
       DOS:  cpu time    0.0027: real time    0.0027
    CHARGE:  cpu time    4.6924: real time    4.6980
    MIXING:  cpu time    1.6177: real time    1.6196
    --------------------------------------------
      LOOP:  cpu time   62.9509: real time   63.0273

 eigenvalue-minimisations  :    24
 total energy-change (2. order) :-0.4396694E-04  (-0.1798367E-07)
 number of electron      16.0000000 magnetization 
 augmentation part        0.0578540 magnetization 

 Broyden mixing:
  rms(total) = 0.62433E-04    rms(broyden)= 0.62433E-04
  rms(prec ) = 0.70162E-04
  weight for this iteration     100.00

 eigenvalues of (default mixing * dielectric matrix)
  average eigenvalue GAMMA=   2.4073
  9.2031  6.0133  3.9565  3.0777  2.4384  2.4384  2.1776  1.1381  1.1381  1.2039
  1.1621  0.9425  0.9425  0.8569  0.8569  0.9700

 Free energy of the ion-electron system (eV)
  ---------------------------------------------------
  alpha Z        PSCENC =         0.01586818
  Ewald energy   TEWEN  =       449.10439214
  -Hartree energ DENC   =     -1090.93744225
  -exchange      EXHF   =         0.00000000
  -V(xc)+E(xc)   XCENC  =        58.28341665
  PAW double counting   =      5619.02320841    -5619.37323061
  entropy T*S    EENTRO =        -0.00000000
  eigenvalues    EBANDS =      -209.36139189
  atomic energy  EATOM  =       759.36657541
  Solvation  Ediel_sol  =         0.00000000
  ---------------------------------------------------
  free energy    TOTEN  =       -33.87860397 eV

  energy without entropy =      -33.87860397  energy(sigma->0) =      -33.87860397


--------------------------------------------------------------------------------------------------------




--------------------------------------- Iteration      1(  22)  ---------------------------------------


    POTLOK:  cpu time   41.7411: real time   41.7824
    SETDIJ:  cpu time    0.0526: real time    0.0526
     EDDAV:  cpu time   14.9207: real time   14.9461
       DOS:  cpu time    0.0037: real time    0.0037
    CHARGE:  cpu time    4.7501: real time    4.7573
    MIXING:  cpu time    1.6512: real time    1.6531
    --------------------------------------------
      LOOP:  cpu time   63.1194: real time   63.1953

 eigenvalue-minimisations  :    24
 total energy-change (2. order) :-0.3775559E-04  (-0.2602846E-07)
 number of electron      16.0000000 magnetization 
 augmentation part        0.0578543 magnetization 

 Broyden mixing:
  rms(total) = 0.26627E-04    rms(broyden)= 0.26627E-04
  rms(prec ) = 0.29780E-04
  weight for this iteration     100.00

 eigenvalues of (default mixing * dielectric matrix)
  average eigenvalue GAMMA=   2.3748
  9.3648  6.4466  4.3088  3.1783  2.4324  2.4324  1.8483  1.5576  1.1466  1.1466
  1.0380  0.8547  0.8547  0.9262  0.9262  0.9545  0.9545

 Free energy of the ion-electron system (eV)
  ---------------------------------------------------
  alpha Z        PSCENC =         0.01586818
  Ewald energy   TEWEN  =       449.10439214
  -Hartree energ DENC   =     -1090.93885442
  -exchange      EXHF   =         0.00000000
  -V(xc)+E(xc)   XCENC  =        58.28342370
  PAW double counting   =      5619.06256530    -5619.41259899
  entropy T*S    EENTRO =        -0.00000000
  eigenvalues    EBANDS =      -209.36001303
  atomic energy  EATOM  =       759.36657541
  Solvation  Ediel_sol  =         0.00000000
  ---------------------------------------------------
  free energy    TOTEN  =       -33.87864173 eV

  energy without entropy =      -33.87864173  energy(sigma->0) =      -33.87864173


--------------------------------------------------------------------------------------------------------




--------------------------------------- Iteration      1(  23)  ---------------------------------------


    POTLOK:  cpu time   41.7141: real time   41.7578
    SETDIJ:  cpu time    0.0479: real time    0.0479
     EDDAV:  cpu time   15.0213: real time   15.0410
       DOS:  cpu time    0.0070: real time    0.0071
    CHARGE:  cpu time    4.7590: real time    4.7647
    MIXING:  cpu time    1.7051: real time    1.7071
    --------------------------------------------
      LOOP:  cpu time   63.2544: real time   63.3255

 eigenvalue-minimisations  :    24
 total energy-change (2. order) :-0.4673024E-05  (-0.2634597E-08)
 number of electron      16.0000000 magnetization 
 augmentation part        0.0578540 magnetization 

 Broyden mixing:
  rms(total) = 0.19692E-04    rms(broyden)= 0.19692E-04
  rms(prec ) = 0.22172E-04
  weight for this iteration     100.00

 eigenvalues of (default mixing * dielectric matrix)
  average eigenvalue GAMMA=   2.3769
  9.5043  6.6289  4.5421  3.1387  2.5943  2.2875  2.0960  1.5791  1.5791  1.1138
  1.1138  1.0490  1.0490  0.9305  0.9305  0.8582  0.8582  0.9317

 Free energy of the ion-electron system (eV)
  ---------------------------------------------------
  alpha Z        PSCENC =         0.01586818
  Ewald energy   TEWEN  =       449.10439214
  -Hartree energ DENC   =     -1090.93896529
  -exchange      EXHF   =         0.00000000
  -V(xc)+E(xc)   XCENC  =        58.28341760
  PAW double counting   =      5619.07561778    -5619.42565017
  entropy T*S    EENTRO =        -0.00000000
  eigenvalues    EBANDS =      -209.35990206
  atomic energy  EATOM  =       759.36657541
  Solvation  Ediel_sol  =         0.00000000
  ---------------------------------------------------
  free energy    TOTEN  =       -33.87864640 eV

  energy without entropy =      -33.87864640  energy(sigma->0) =      -33.87864640


--------------------------------------------------------------------------------------------------------




--------------------------------------- Iteration      1(  24)  ---------------------------------------


    POTLOK:  cpu time   41.8637: real time   41.9105
    SETDIJ:  cpu time    0.0425: real time    0.0425
     EDDAV:  cpu time   11.6373: real time   11.6548
       DOS:  cpu time    0.0073: real time    0.0073
    CHARGE:  cpu time    4.7314: real time    4.7377
    MIXING:  cpu time    1.7868: real time    1.7923
    --------------------------------------------
      LOOP:  cpu time   60.0691: real time   60.1451

 eigenvalue-minimisations  :    16
 total energy-change (2. order) :-0.6783327E-05  (-0.2876870E-08)
 number of electron      16.0000000 magnetization 
 augmentation part        0.0578542 magnetization 

 Broyden mixing:
  rms(total) = 0.10184E-04    rms(broyden)= 0.10184E-04
  rms(prec ) = 0.11824E-04
  weight for this iteration     100.00

 eigenvalues of (default mixing * dielectric matrix)
  average eigenvalue GAMMA=   2.4295
  9.5504  7.0840  5.0056  3.7524  2.8658  2.4087  2.4087  1.6657  1.6657  1.1715
  1.1715  1.0223  1.0223  0.9391  0.9391  0.8580  0.8580  0.8932  0.8788

 Free energy of the ion-electron system (eV)
  ---------------------------------------------------
  alpha Z        PSCENC =         0.01586818
  Ewald energy   TEWEN  =       449.10439214
  -Hartree energ DENC   =     -1090.93892260
  -exchange      EXHF   =         0.00000000
  -V(xc)+E(xc)   XCENC  =        58.28340334
  PAW double counting   =      5619.06718689    -5619.41721332
  entropy T*S    EENTRO =        -0.00000000
  eigenvalues    EBANDS =      -209.35994322
  atomic energy  EATOM  =       759.36657541
  Solvation  Ediel_sol  =         0.00000000
  ---------------------------------------------------
  free energy    TOTEN  =       -33.87865318 eV

  energy without entropy =      -33.87865318  energy(sigma->0) =      -33.87865318


--------------------------------------------------------------------------------------------------------




--------------------------------------- Iteration      1(  25)  ---------------------------------------


    POTLOK:  cpu time   41.8923: real time   41.9385
    SETDIJ:  cpu time    0.0446: real time    0.0446
     EDDAV:  cpu time   11.7282: real time   11.7436
       DOS:  cpu time    0.0059: real time    0.0059
    CHARGE:  cpu time    4.7417: real time    4.7472
    MIXING:  cpu time    1.8245: real time    1.8268
    --------------------------------------------
      LOOP:  cpu time   60.2372: real time   60.3066

 eigenvalue-minimisations  :    16
 total energy-change (2. order) :-0.3666121E-05  (-0.3746646E-08)
 number of electron      16.0000000 magnetization 
 augmentation part        0.0578543 magnetization 

 Broyden mixing:
  rms(total) = 0.86109E-05    rms(broyden)= 0.86109E-05
  rms(prec ) = 0.91741E-05
  weight for this iteration     100.00

 eigenvalues of (default mixing * dielectric matrix)
  average eigenvalue GAMMA=   2.4184
  9.6141  7.2559  5.2599  3.8560  3.0205  2.5120  2.3554  1.6814  1.6814  1.3136
  1.3136  1.0621  1.0621  1.0213  0.9395  0.9395  0.9045  0.8690  0.8530  0.8530

 Free energy of the ion-electron system (eV)
  ---------------------------------------------------
  alpha Z        PSCENC =         0.01586818
  Ewald energy   TEWEN  =       449.10439214
  -Hartree energ DENC   =     -1090.93876931
  -exchange      EXHF   =         0.00000000
  -V(xc)+E(xc)   XCENC  =        58.28339327
  PAW double counting   =      5619.08267889    -5619.43270370
  entropy T*S    EENTRO =        -0.00000000
  eigenvalues    EBANDS =      -209.36009172
  atomic energy  EATOM  =       759.36657541
  Solvation  Ediel_sol  =         0.00000000
  ---------------------------------------------------
  free energy    TOTEN  =       -33.87865685 eV

  energy without entropy =      -33.87865685  energy(sigma->0) =      -33.87865685


--------------------------------------------------------------------------------------------------------




--------------------------------------- Iteration      1(  26)  ---------------------------------------


    POTLOK:  cpu time   41.8652: real time   41.9127
    SETDIJ:  cpu time    0.0414: real time    0.0414
     EDDAV:  cpu time   14.9513: real time   14.9718
       DOS:  cpu time    0.0035: real time    0.0035
    CHARGE:  cpu time    4.7369: real time    4.7423
    MIXING:  cpu time    1.9255: real time    1.9278
    --------------------------------------------
      LOOP:  cpu time   63.5238: real time   63.5997

 eigenvalue-minimisations  :    24
 total energy-change (2. order) :-0.1235776E-05  (-0.2057932E-08)
 number of electron      16.0000000 magnetization 
 augmentation part        0.0578544 magnetization 

 Broyden mixing:
  rms(total) = 0.45478E-05    rms(broyden)= 0.45478E-05
  rms(prec ) = 0.49231E-05
  weight for this iteration     100.00

 eigenvalues of (default mixing * dielectric matrix)
  average eigenvalue GAMMA=   2.4175
  9.6506  7.3577  5.5074  3.8955  3.1576  2.6408  2.2857  2.2857  1.6115  1.6115
  1.1748  1.1748  1.0841  1.0841  0.9461  0.9461  0.9134  0.9134  0.8572  0.8572
  0.8121

 Free energy of the ion-electron system (eV)
  ---------------------------------------------------
  alpha Z        PSCENC =         0.01586818
  Ewald energy   TEWEN  =       449.10439214
  -Hartree energ DENC   =     -1090.93890539
  -exchange      EXHF   =         0.00000000
  -V(xc)+E(xc)   XCENC  =        58.28339718
  PAW double counting   =      5619.07086743    -5619.42089325
  entropy T*S    EENTRO =        -0.00000000
  eigenvalues    EBANDS =      -209.35995978
  atomic energy  EATOM  =       759.36657541
  Solvation  Ediel_sol  =         0.00000000
  ---------------------------------------------------
  free energy    TOTEN  =       -33.87865808 eV

  energy without entropy =      -33.87865808  energy(sigma->0) =      -33.87865808


--------------------------------------------------------------------------------------------------------




--------------------------------------- Iteration      1(  27)  ---------------------------------------


    POTLOK:  cpu time   41.8045: real time   41.8521
    SETDIJ:  cpu time    0.0438: real time    0.0438
     EDDAV:  cpu time   11.7622: real time   11.7803
       DOS:  cpu time    0.0062: real time    0.0062
    CHARGE:  cpu time    4.7537: real time    4.7591
    MIXING:  cpu time    2.0045: real time    2.0071
    --------------------------------------------
      LOOP:  cpu time   60.3749: real time   60.4486

 eigenvalue-minimisations  :    16
 total energy-change (2. order) :-0.7883330E-06  (-0.1616108E-08)
 number of electron      16.0000000 magnetization 
 augmentation part        0.0578543 magnetization 

 Broyden mixing:
  rms(total) = 0.51458E-05    rms(broyden)= 0.51458E-05
  rms(prec ) = 0.53048E-05
  weight for this iteration     100.00

 eigenvalues of (default mixing * dielectric matrix)
  average eigenvalue GAMMA=   2.4043
  9.6609  7.5592  5.6478  4.1467  3.2052  2.6609  2.3984  2.3984  1.6558  1.6558
  1.2523  1.2523  1.0812  1.0812  0.9740  0.9740  0.9156  0.9156  0.9616  0.8588
  0.8588  0.7791

 Free energy of the ion-electron system (eV)
  ---------------------------------------------------
  alpha Z        PSCENC =         0.01586818
  Ewald energy   TEWEN  =       449.10439214
  -Hartree energ DENC   =     -1090.93900660
  -exchange      EXHF   =         0.00000000
  -V(xc)+E(xc)   XCENC  =        58.28340175
  PAW double counting   =      5619.06747365    -5619.41750093
  entropy T*S    EENTRO =        -0.00000000
  eigenvalues    EBANDS =      -209.35986246
  atomic energy  EATOM  =       759.36657541
  Solvation  Ediel_sol  =         0.00000000
  ---------------------------------------------------
  free energy    TOTEN  =       -33.87865887 eV

  energy without entropy =      -33.87865887  energy(sigma->0) =      -33.87865887


--------------------------------------------------------------------------------------------------------




--------------------------------------- Iteration      1(  28)  ---------------------------------------


    POTLOK:  cpu time   41.6931: real time   41.7346
    SETDIJ:  cpu time    0.0418: real time    0.0418
     EDDAV:  cpu time   14.9165: real time   14.9418
       DOS:  cpu time    0.0078: real time    0.0078
    CHARGE:  cpu time    4.7531: real time    4.7586
    MIXING:  cpu time    2.1033: real time    2.1059
    --------------------------------------------
      LOOP:  cpu time   63.5155: real time   63.5904

 eigenvalue-minimisations  :    24
 total energy-change (2. order) :-0.2515649E-06  (-0.1261991E-08)
 number of electron      16.0000000 magnetization 
 augmentation part        0.0578542 magnetization 

 Broyden mixing:
  rms(total) = 0.26494E-05    rms(broyden)= 0.26494E-05
  rms(prec ) = 0.27785E-05
  weight for this iteration     100.00

 eigenvalues of (default mixing * dielectric matrix)
  average eigenvalue GAMMA=   2.4071
  9.7158  7.6414  5.8189  4.3104  3.3056  2.8806  2.3423  2.3423  1.8536  1.8536
  1.3852  1.3852  1.1289  1.1289  1.0489  1.0489  0.9348  0.9348  0.9186  0.9186
  0.8569  0.8569  0.7521

 Free energy of the ion-electron system (eV)
  ---------------------------------------------------
  alpha Z        PSCENC =         0.01586818
  Ewald energy   TEWEN  =       449.10439214
  -Hartree energ DENC   =     -1090.93894573
  -exchange      EXHF   =         0.00000000
  -V(xc)+E(xc)   XCENC  =        58.28339984
  PAW double counting   =      5619.07281408    -5619.42284122
  entropy T*S    EENTRO =        -0.00000000
  eigenvalues    EBANDS =      -209.35992183
  atomic energy  EATOM  =       759.36657541
  Solvation  Ediel_sol  =         0.00000000
  ---------------------------------------------------
  free energy    TOTEN  =       -33.87865912 eV

  energy without entropy =      -33.87865912  energy(sigma->0) =      -33.87865912


--------------------------------------------------------------------------------------------------------




--------------------------------------- Iteration      1(  29)  ---------------------------------------


    POTLOK:  cpu time   41.6679: real time   41.7142
    SETDIJ:  cpu time    0.0531: real time    0.0531
     EDDAV:  cpu time   11.6929: real time   11.7081
       DOS:  cpu time    0.0067: real time    0.0067
    CHARGE:  cpu time    4.7489: real time    4.7547
    MIXING:  cpu time    2.1505: real time    2.1532
    --------------------------------------------
      LOOP:  cpu time   60.3200: real time   60.3900

 eigenvalue-minimisations  :    16
 total energy-change (2. order) :-0.2169018E-06  (-0.1103269E-08)
 number of electron      16.0000000 magnetization 
 augmentation part        0.0578542 magnetization 

 Broyden mixing:
  rms(total) = 0.10104E-05    rms(broyden)= 0.10104E-05
  rms(prec ) = 0.11099E-05
  weight for this iteration     100.00

 eigenvalues of (default mixing * dielectric matrix)
  average eigenvalue GAMMA=   2.3945
  9.7025  7.9103  5.9833  4.5956  3.4823  2.9474  2.4145  2.4145  1.8708  1.6897
  1.5365  1.5365  1.1359  1.1359  1.1426  0.9937  0.9324  0.9324  0.9524  0.9524
  0.8576  0.8576  0.8048  0.6853

 Free energy of the ion-electron system (eV)
  ---------------------------------------------------
  alpha Z        PSCENC =         0.01586818
  Ewald energy   TEWEN  =       449.10439214
  -Hartree energ DENC   =     -1090.93887565
  -exchange      EXHF   =         0.00000000
  -V(xc)+E(xc)   XCENC  =        58.28339643
  PAW double counting   =      5619.07757179    -5619.42759847
  entropy T*S    EENTRO =        -0.00000000
  eigenvalues    EBANDS =      -209.35998917
  atomic energy  EATOM  =       759.36657541
  Solvation  Ediel_sol  =         0.00000000
  ---------------------------------------------------
  free energy    TOTEN  =       -33.87865934 eV

  energy without entropy =      -33.87865934  energy(sigma->0) =      -33.87865934


--------------------------------------------------------------------------------------------------------




--------------------------------------- Iteration      1(  30)  ---------------------------------------


    POTLOK:  cpu time   41.5862: real time   41.6276
    SETDIJ:  cpu time    0.0501: real time    0.0502
     EDDAV:  cpu time   14.9259: real time   14.9446
       DOS:  cpu time    0.0090: real time    0.0090
    --------------------------------------------
      LOOP:  cpu time   56.5712: real time   56.6314

 eigenvalue-minimisations  :    24
 total energy-change (2. order) :-0.7074891E-07  (-0.1006637E-08)
 number of electron      16.0000000 magnetization 
 augmentation part        0.0578542 magnetization 

 Free energy of the ion-electron system (eV)
  ---------------------------------------------------
  alpha Z        PSCENC =         0.01586818
  Ewald energy   TEWEN  =       449.10439214
  -Hartree energ DENC   =     -1090.93887709
  -exchange      EXHF   =         0.00000000
  -V(xc)+E(xc)   XCENC  =        58.28339680
  PAW double counting   =      5619.07677300    -5619.42679981
  entropy T*S    EENTRO =        -0.00000000
  eigenvalues    EBANDS =      -209.35998804
  atomic energy  EATOM  =       759.36657541
  Solvation  Ediel_sol  =         0.00000000
  ---------------------------------------------------
  free energy    TOTEN  =       -33.87865941 eV

  energy without entropy =      -33.87865941  energy(sigma->0) =      -33.87865941


--------------------------------------------------------------------------------------------------------




 average (electrostatic) potential at core
  the test charge radii are     0.4325  0.5902  0.5955
  (the norm of the test charge is              1.0000)
       1 -46.0190       2 -45.9761       3 -46.0184       4 -47.7540       5 -47.7534
       6-102.7213       7-119.6840
 
 
 
 E-fermi :  -5.9129     XC(G=0):  -0.0369     alpha+bet : -0.0072


 k-point     1 :       0.0000    0.0000    0.0000
  band No.  band energies     occupation 
      1     -25.4435      2.00000
      2     -21.0242      2.00000
      3     -13.2228      2.00000
      4     -11.1326      2.00000
      5     -11.1166      2.00000
      6      -9.4325      2.00000
      7      -7.3175      2.00000
      8      -5.9902      2.00000
      9      -1.0399      0.00000
     10      -0.5287      0.00000
     11      -0.0002      0.00000
     12       0.0895      0.00000


--------------------------------------------------------------------------------------------------------


 soft charge-density along one line, spin component            1
         0         1         2         3         4         5         6         7         8         9
 total charge-density along one line
 
 pseudopotential strength for first ion, spin component:            1
 -2.529  -5.376  -0.003   0.006   0.003
 -5.376 -11.403  -0.006   0.015   0.007
 -0.003  -0.006  -1.393  -0.005  -0.003
  0.006   0.015  -0.005  -1.382   0.007
  0.003   0.007  -0.003   0.007  -1.392
 total augmentation occupancy for first ion, spin component:            1
  3.898  -0.648   0.099  -0.256  -0.125
 -0.648   0.126  -0.016   0.044   0.020
  0.099  -0.016   0.007  -0.004  -0.004
 -0.256   0.044  -0.004   0.020   0.005
 -0.125   0.020  -0.004   0.005   0.009


------------------------ aborting loop because EDIFF is reached ----------------------------------------



 DIPCOR: dipole corrections for dipol
 direction  1 min pos   484, direction  2 min pos   555, direction  3 min pos   544,
 dipolmoment           0.117377     -0.502408     -0.235286 electrons x Angstroem
 Tr[quadrupol]         4.773511

 energy correction for charged system         0.000000 eV
 dipol+quadrupol energy correction            0.000226 eV
 added-field ion interaction          0.000000 eV  (added to PSCEN)

 
  *************** adding dipol energy to TOTEN NOW **************** 
    CHARGE:  cpu time    4.6518: real time    4.6573
    FORLOC:  cpu time    2.7861: real time    2.7886
    FORNL :  cpu time    0.6802: real time    0.6813
    STRESS:  cpu time    8.8656: real time    8.8769
    FORCOR:  cpu time   39.7655: real time   39.8047
    FORHAR:  cpu time   12.6325: real time   12.6509
    MIXING:  cpu time    2.2256: real time    2.2283
    OFIELD:  cpu time    0.0000: real time    0.0000

  FORCE on cell =-STRESS in cart. coord.  units (eV):
  Direction    XX          YY          ZZ          XY          YZ          ZX
  --------------------------------------------------------------------------------------
  Alpha Z     0.01587     0.01587     0.01587
  Ewald     120.93224   281.53939    46.63277    17.19721   -28.46540    85.28882
  Hartree   314.24710   476.05568   300.63608     5.80933    -6.02061    15.41740
  E(xc)     -69.01300   -69.02404   -69.34130     0.05930    -0.11656     0.38017
  Local    -672.44765  -996.58077  -607.97580   -18.81885    26.14952   -73.58272
  n-local   -36.11148   -36.80870   -39.63960     0.64781    -1.32210     4.03065
  augment     0.62389     0.64897     0.94887    -0.02854     0.06921    -0.40953
  Kinetic   342.50364   344.80119   369.15999    -4.81621     9.59657   -30.76310
  Fock        0.00000     0.00000     0.00000     0.00000     0.00000     0.00000
  -------------------------------------------------------------------------------------
  Total       0.75061     0.64760     0.43687     0.05004    -0.10937     0.36168
  in kB       0.02805     0.02420     0.01633     0.00187    -0.00409     0.01352
  external pressure =        0.02 kB  Pullay stress =        0.00 kB


 VOLUME and BASIS-vectors are now :
 -----------------------------------------------------------------------------
  energy-cutoff  :     2000.00
  volume of cell :    42875.00
      direct lattice vectors                 reciprocal lattice vectors
    35.000000000  0.000000000  0.000000000     0.028571429  0.000000000  0.000000000
     0.000000000 35.000000000  0.000000000     0.000000000  0.028571429  0.000000000
     0.000000000  0.000000000 35.000000000     0.000000000  0.000000000  0.028571429

  length of vectors
    35.000000000 35.000000000 35.000000000     0.028571429  0.028571429  0.028571429


 FORCES acting on ions
    electron-ion (+dipol)            ewald-force                    non-local-force                 convergence-correction
 -----------------------------------------------------------------------------------------------
   -.313E+02 0.278E+02 -.598E+02   0.345E+02 -.304E+02 0.663E+02   -.311E+01 0.246E+01 -.615E+01   0.410E-06 0.427E-06 0.171E-05
   -.393E+01 -.657E+02 0.132E+01   0.428E+01 0.734E+02 -.134E+01   -.344E+00 -.734E+01 0.263E-01   -.182E-06 0.218E-05 0.495E-06
   0.691E+02 0.234E+02 0.131E+01   -.764E+02 -.255E+02 -.132E+01   0.704E+01 0.201E+01 0.269E-01   -.178E-05 0.472E-06 0.460E-06
   -.636E+02 -.520E+02 -.406E+02   0.699E+02 0.569E+02 0.446E+02   -.605E+01 -.475E+01 -.386E+01   -.423E-06 -.897E-06 -.418E-06
   0.563E+02 -.584E+02 0.428E+02   -.619E+02 0.640E+02 -.470E+02   0.536E+01 -.537E+01 0.407E+01   0.453E-06 -.954E-06 0.231E-06
   -.218E+02 0.359E+02 0.377E+02   0.369E+02 -.477E+02 -.634E+02   -.149E+02 0.116E+02 0.253E+02   -.232E-05 0.723E-05 0.545E-05
   0.379E+01 0.389E+02 -.112E+01   -.731E+01 -.908E+02 0.213E+01   0.348E+01 0.514E+02 -.996E+00   -.114E-06 -.516E-05 -.506E-06
 -----------------------------------------------------------------------------------------------
   0.854E+01 -.500E+02 -.185E+02   0.000E+00 0.142E-13 -.133E-14   -.854E+01 0.500E+02 0.185E+02   -.396E-05 0.331E-05 0.743E-05
 
 
 POSITION                                       TOTAL-FORCE (eV/Angst)
 -----------------------------------------------------------------------------------
      0.36010      0.02459      0.72875         0.146495     -0.112327      0.313841
     34.98243      1.36087     34.88400         0.008785      0.382403      0.006220
     33.97356      0.08603     34.88402        -0.352591     -0.086635      0.009566
      0.67595      6.31624      0.32603         0.297194      0.210612      0.188095
     34.43237      6.38340     34.46116        -0.263907      0.239845     -0.202222
     34.95053      0.34950     34.86212         0.198202     -0.172362     -0.331486
      0.01395      5.76014     34.90563        -0.034180     -0.461536      0.015986
 -----------------------------------------------------------------------------------
    total drift:                               -0.000005      0.000002     -0.000033


--------------------------------------------------------------------------------------------------------



  FREE ENERGIE OF THE ION-ELECTRON SYSTEM (eV)
  ---------------------------------------------------
  free  energy   TOTEN  =       -33.87843324 eV

  energy  without entropy=      -33.87843324  energy(sigma->0) =      -33.87843324
 


--------------------------------------------------------------------------------------------------------


    POTLOK:  cpu time   41.0394: real time   41.0807


--------------------------------------------------------------------------------------------------------


 writing wavefunctions
     LOOP+:  cpu time 2549.8058: real time 2552.3056
    4ORBIT:  cpu time    0.0000: real time    0.0000

 total amount of memory used by VASP MPI-rank0  7822733. kBytes
=======================================================================

   base      :      30000. kBytes
   nonl-proj :     165447. kBytes
   fftplans  :    2602168. kBytes
   grid      :    4972871. kBytes
   one-center:          1. kBytes
   wavefun   :      52246. kBytes
 
  
  
 General timing and accounting informations for this job:
 ========================================================
  
                  Total CPU time used (sec):     3350.801
                            User time (sec):     3149.863
                          System time (sec):      200.938
                         Elapsed time (sec):     3354.366
  
                   Maximum memory used (kb):    10335056.
                   Average memory used (kb):           0.
  
                          Minor page faults:    146715040
                          Major page faults:          222
                 Voluntary context switches:         2883
