
 Primary working directories    : /scratch/sirous/119601/molpro.gZPbbzzVLy
 Secondary working directories  : /scratch/sirous/119601/molpro.gZPbbzzVLy
 Wavefunction directory         : /scratch/sirous/119601/
 Main file repository           : /scratch/sirous/119601/molpro.gZPbbzzVLy/

 id        : karlovklimes

 Nodes                      nprocs
 nc-01.cc.karlov.mff.cuni.cz    4

 Using customized tuning parameters: mindgm=1; mindgv=20; mindgc=4; mindgr=1; noblas=0; minvec=7
 default implementation of scratch files=sf  


 Variables initialized (934), CPU time= 0.01 sec
 ***,CH3C6H4CN+CF3CN+BF3
 memory,500,m
 gdirect
 gthresh,energy=1.d-8,twoint=1.d-19,oneint=1.d-19,zero=1.d-15,orbital=1.d-8,grid=1.d-8
 symmetry,nosym
 geomtyp=xyz
                                                                                 ! Geometry
 geometry={
 N1        -0.533463968    -0.279593512     0.106995757
 H1        -0.629151376    -1.248424552     0.382848668
 H2        -1.122603635    -0.166159444     -0.707764101
 C1        -1.016909428    0.588486102     1.187373456
 H3        -0.912759674    1.625551742     0.879521158
 H4        -2.054737265    0.415082130     1.478503595
 H5        -0.385023376    0.448800896     2.060614186
 O1        2.128936430    0.931124077     0.210755642
 H6        1.311419022    0.434851589     0.037602740
 H7        2.710837879    0.672626207     -0.504990451
 }
 
 
 
 basis=avtz
 
 
 
                                                                                 ! Dimer Calculation
 {rks,pbe,accu=1.d-8;orbital,2101.2}
 eab_PBE=energy
 
 
                                                                                 !monomer A
 dummy,8,9,10;                                                                   ! NOW MONOMER B IS DUMMY
 {rks,pbe,accu=1.d-8;orbital,2201.2}
 ea_PBE=energy
                                                                                 !monomer B
 dummy,1,2,3,4,5,6,7;                                                            !NOW MONOMER A IS DUMMY
 {rks,pbe,accu=1.d-8;orbital,2301.2}
 eb_PBE=energy
 
 E_AB_int=eab_PBE-ea_PBE-eb_PBE
 
 
 text,results in hartree
 show,E_AB_int
 
 Commands  initialized (763), CPU time= 0.02 sec, 617 directives.
 Default parameters read. Elapsed time= 0.21 sec

 Checking input...
 Passed
1


                                         ***  PROGRAM SYSTEM MOLPRO  ***
                                       Copyright, TTI GmbH Stuttgart, 2015
                                    Version 2019.2 linked Jun  8 2019 11:26:33


 **********************************************************************************************************************************
 LABEL *   CH3C6H4CN+CF3CN+BF3                                                           
  64 bit mpp version                                                                     DATE: 20-Nov-19          TIME: 09:09:35  
 **********************************************************************************************************************************

 SHA1:             8135a10abc80eafa5b3ae28ffc55be4890dc4c84
 **********************************************************************************************************************************

 THRESHOLDS:

 ZERO    =  1.00D-15  ONEINT  =  1.00D-19  TWOINT  =  1.00D-19  PREFAC  =  1.00D-14  XXXXXX  =  1.00D-09  EORDER  =  1.00D-04
 ENERGY  =  1.00D-08  ETEST   =  0.00D+00  EDENS   =  0.00D+00  THRDEDEF=  1.00D-06  GRADIENT=  1.00D-02  STEP    =  1.00D-03
 ORBITAL =  1.00D-08  CIVEC   =  1.00D-05  COEFF   =  1.00D-04  PRINTCI =  5.00D-02  PUNCHCI =  9.90D+01  OPTGRAD =  3.00D-04
 OPTENERG=  1.00D-06  OPTSTEP =  3.00D-04  THRGRAD =  1.00D-10  COMPRESS=  1.00D-11  VARMIN  =  1.00D-07  VARMAX  =  1.00D-03
 THRDOUB =  0.00D+00  THRDIV  =  1.00D-05  THRRED  =  1.00D-07  THRPSP  =  1.00D+00  THRDC   =  1.00D-10  THRCS   =  1.00D-10
 THRNRM  =  1.00D-08  THREQ   =  0.00D+00  THRDE   =  1.00D+00  THRREF  =  1.00D-05  SPARFAC =  1.00D+00  THRDLP  =  1.00D-07
 THRDIA  =  1.00D-10  THRDLS  =  1.00D-07  THRGPS  =  0.00D+00  THRKEX  =  0.00D+00  THRDIS  =  2.00D-01  THRVAR  =  1.00D-10
 THRLOC  =  1.00D-06  THRGAP  =  1.00D-06  THRLOCT = -1.00D+00  THRGAPT = -1.00D+00  THRORB  =  1.00D-06  THRMLTP =  0.00D+00
 THRCPQCI=  1.00D-10  KEXTA   =  0.00D+00  THRCOARS=  0.00D+00  SYMTOL  =  1.00D-06  GRADTOL =  1.00D-06  THROVL  =  1.00D-08
 THRORTH =  1.00D-08  GRID    =  1.00D-08  GRIDMAX =  1.00D-03  DTMAX   =  0.00D+00  THROCCDE=  1.00D-01  THROCCDE=  1.00D-01
 THRPRINT=  2.50D-01


 Variable memory set to  500000000 words,  buffer space 

 SETTING GEOMTYP        =    XYZ
 ZSYMEL=NOSYM

 SETTING BASIS          =    AVTZ


 Recomputing integrals since basis changed


 Using spherical harmonics

 Library entry N      S aug-cc-pVTZ          selected for orbital group  1
 Library entry N      P aug-cc-pVTZ          selected for orbital group  1
 Library entry N      D aug-cc-pVTZ          selected for orbital group  1
 Library entry N      F aug-cc-pVTZ          selected for orbital group  1
 Library entry H      S aug-cc-pVTZ          selected for orbital group  2
 Library entry H      P aug-cc-pVTZ          selected for orbital group  2
 Library entry H      D aug-cc-pVTZ          selected for orbital group  2
 Library entry C      S aug-cc-pVTZ          selected for orbital group  3
 Library entry C      P aug-cc-pVTZ          selected for orbital group  3
 Library entry C      D aug-cc-pVTZ          selected for orbital group  3
 Library entry C      F aug-cc-pVTZ          selected for orbital group  3
 Library entry O      S aug-cc-pVTZ          selected for orbital group  5
 Library entry O      P aug-cc-pVTZ          selected for orbital group  5
 Library entry O      D aug-cc-pVTZ          selected for orbital group  5
 Library entry O      F aug-cc-pVTZ          selected for orbital group  5


 PROGRAM * SEWARD (Integral evaluation for generally contracted gaussian basis sets)     Author: Roland Lindh, 1990

 Geometry written to block  1 of record 700


 Point group  C1  



 ATOMIC COORDINATES

 NR  ATOM    CHARGE       X              Y              Z

   1  N1      7.00   -1.008100797   -0.528355164    0.202192677
   2  H1      1.00   -1.188923792   -2.359180490    0.723479130
   3  H2      1.00   -2.121413417   -0.313995842   -1.337480312
   4  C1      6.00   -1.921680312    1.112077561    2.243810639
   5  H3      1.00   -1.724865801    3.071847594    1.662054109
   6  H4      1.00   -3.882890689    0.784391545    2.793966869
   7  H5      1.00   -0.727588732    0.848110778    3.893996460
   8  O1      8.00    4.023106789    1.759569494    0.398270443
   9  H6      1.00    2.478222786    0.821750408    0.071058880
  10  H7      1.00    5.122741159    1.271079315   -0.954293648

 Bond lengths in Bohr (Angstrom)

 1-2  1.912160531  1-3  1.912068990  1-4  2.773779184  4-5  2.053746623  4-6  2.063103522
     ( 1.011871777)     ( 1.011823335)     ( 1.467820732)     ( 1.086795910)     ( 1.091747368)

  4- 7  2.053934373   8- 9  1.836637860   8-10  1.810317105
       ( 1.086895263)       ( 0.971906900)       ( 0.957978557)

 Bond angles

  1-4-5  108.92232450   1-4-6  114.54691082   1-4-7  108.89704664   2-1-3  105.77144003

  2-1-4  109.53896726   3-1-4  109.54911813   5-4-6  108.55407820   5-4-7  107.12795866

  6- 4- 7  108.54184765   9- 8-10  103.88906570

 NUCLEAR CHARGE:                   28
 NUMBER OF PRIMITIVE AOS:         390
 NUMBER OF SYMMETRY AOS:          349
 NUMBER OF CONTRACTIONS:          299   (  299A   )
 NUMBER OF CORE ORBITALS:           3   (    3A   )
 NUMBER OF VALENCE ORBITALS:       19   (   19A   )


 NUCLEAR REPULSION ENERGY   81.51587083


 Eigenvalues of metric

         1 0.290E-04 0.360E-04 0.578E-04 0.615E-04 0.114E-03 0.132E-03 0.176E-03 0.265E-03


 OPERATOR DM      FOR CENTER  0  COORDINATES:    0.000000    0.000000    0.000000


 **********************************************************************************************************************************
 DATASETS  * FILE   NREC   LENGTH (MB)   RECORD NAMES
              1      18       33.42       500      610      700      900      950      970     1000      129      960     1100   
                                          VAR    BASINP    GEOM    SYMINP    ZMAT    AOBASIS   BASIS     P2S    ABASIS      S 
                                         1400     1410     1200     1210     1080     1600     1650     1700   
                                           T        V       H0       H01     AOSYM     SMH    MOLCAS    OPER   

 PROGRAMS   *        TOTAL       INT
 CPU TIMES  *         0.64      0.45
 REAL TIME  *         1.85 SEC
 DISK USED  *        33.92 MB (local),      135.69 MB (total)
 GA USED    *         0.00 MB       (max)       0.00 MB       (current)
 **********************************************************************************************************************************

 Density functional group PBE=PBEX+PBEC
 Functional: PBEX(Automatically generated (new) PBEX)                          Gradient terms: 1
 Functional: PBEC(Automatically generated (new) PBEC)                          Gradient terms: 1
 Use libxcgrid:  F
 Use grid at  1800.2

 Functional: PBEX                      Factor:  1.0000
 Functional: PBEC                      Factor:  1.0000

 Generated new metagrid on record  1800.2 with target accuracy 1.0D-08 and 85042 points in CPU time    0.3
 Computed new grid on record 1800.1 in CPU time    0.4
  241946 words reserved for DFT integration

 PROGRAM * RKS-SCF (Restricted closed shell Kohn-Sham)     Authors: W. Meyer, H.-J. Werner, P.J. Knowles, 1993

 NUMBER OF ELECTRONS:      14+   14-    SPACE SYMMETRY=1    SPIN SYMMETRY: Singlet 
 CONVERGENCE THRESHOLDS:    1.00E-04 (Density)    1.00E-08 (Energy)
 INTEGRAL THRESHOLDS:       1.00E-11 (Initial)    1.00E-11 (Final)
 MAX. NUMBER OF ITERATIONS:       60
 INTERPOLATION TYPE:            DIIS
 INTERPOLATION STEPS:              2 (START)      1 (STEP)
 LEVEL SHIFTS:                  0.00 (CLOSED)  0.00 (OPEN) 



 Use fine grid record 1800.2 for energy threshold  1.0D-08
 Orbital guess generated from atomic densities. Full valence occupancy:   22

 Molecular orbital dump at record        2101.2

 Initial occupancy:  14

 Direct Fock-matrix evaluation.        Authors: Roland Lindh & Martin Schuetz (1993/96)

 Integral Threshold:                  0.1D-10
 Threshold for writing integrals:     0.1D-06
 Prescreening on density matrix:        ON 
 Calculation will be performed fully direct        

 ITERATION   DDIFF            GRAD            ENERGY        2-EL.EN.            DIPOLE MOMENTS         DIIS   CPU(IT)  CPU(TOT)
    1      0.000D+00      0.000D+00      -171.95327921    342.081503   -1.20707   -1.02030   -0.70045    0     12.7     16.4     start
    2      0.000D+00      0.777D-02      -171.32118574    304.917312   -0.36873    0.25818    0.50874    1     11.7     28.1     diag
    3      0.153D-01      0.156D-01      -172.14821169    330.206006   -1.02678   -0.71267   -0.42291    2     11.6     39.7     diag
    4      0.102D-01      0.169D-02      -172.15566688    330.206372   -0.96886   -0.66182   -0.36532    3     11.4     51.1     diag
    5      0.168D-02      0.793D-03      -172.15764512    329.619240   -0.95431   -0.67259   -0.38780    4     11.4     62.6     diag
    6      0.642D-03      0.214D-03      -172.15777592    329.708192   -0.96513   -0.66343   -0.37362    5     11.2     73.8     diag
    7      0.178D-03      0.905D-04      -172.15780106    329.720967   -0.96347   -0.66663   -0.37813    6     11.0     84.8     diag
    8      0.622D-04      0.142D-04      -172.15780169    329.734420   -0.96398   -0.66674   -0.37799    7     10.8     95.6     diag
    9      0.958D-05      0.195D-05      -172.15780170    329.735159   -0.96411   -0.66701   -0.37831    8     10.5    106.1     diag
   10      0.156D-05      0.364D-06      -172.15780170    329.734875   -0.96401   -0.66692   -0.37822    0     10.1    116.2     orth

 Final occupancy:  14

 !RKS STATE  1.1 Energy              -172.157801701752
 Nuclear energy                        81.51587083
 One-electron energy                 -395.22124015
 Two-electron energy                  164.86743752
 Density functional                   -23.31986989     PBEX=-22.41780587 PBEC= -0.90206403
 Virial quotient                       -1.00561814
 !RKS STATE  1.1 Dipole moment         -0.96400913    -0.66691598    -0.37821798
 Dipole moment /Debye                  -2.45010631    -1.69502032    -0.96127126

 Orbital energies:

         1.1          2.1          3.1          4.1          5.1          6.1          7.1          8.1          9.1         10.1
    -18.720090   -13.991528    -9.906577    -0.892665    -0.820975    -0.610108    -0.459637    -0.449385    -0.408301    -0.370616

        11.1         12.1         13.1         14.1         15.1         16.1
     -0.335665    -0.311555    -0.232235    -0.226301    -0.031720    -0.003539


 HOMO     14.1    -0.226301 =      -6.1580eV
 LUMO     15.1    -0.031720 =      -0.8631eV
 LUMO-HOMO         0.194582 =       5.2948eV


 **********************************************************************************************************************************
 DATASETS  * FILE   NREC   LENGTH (MB)   RECORD NAMES
              1      19       33.42       500      610      700      900      950      970     1000      129      960     1100   
                                          VAR    BASINP    GEOM    SYMINP    ZMAT    AOBASIS   BASIS     P2S    ABASIS      S 
                                         1400     1410     1200     1210     1080     1600     1650     1700     1800   
                                           T        V       H0       H01     AOSYM     SMH    MOLCAS    OPER     GRID   

              2       5        4.75       700     1000      520     1800     2101   
                                         GEOM     BASIS   MCVARS    GRID      RKS  

 PROGRAMS   *        TOTAL   RKS-SCF       INT
 CPU TIMES  *       117.29    116.65      0.45
 REAL TIME  *       120.13 SEC
 DISK USED  *        44.35 MB (local),      177.39 MB (total)
 SF USED    *         1.08 MB
 GA USED    *         2.79 MB       (max)       2.79 MB       (current)
 **********************************************************************************************************************************
 SETTING EAB_PBE        =      -172.15780170  AU                              

 Dummy atoms: O1  H6  H7


 Recomputing one-electron integrals since nuclear charges changed


 PROGRAM * SEWARD (Integral evaluation for generally contracted gaussian basis sets)     Author: Roland Lindh, 1990

 Geometry written to block  1 of record 700


 Point group  C1  



 ATOMIC COORDINATES

 NR  ATOM    CHARGE       X              Y              Z

   1  N1      7.00   -1.008100797   -0.528355164    0.202192677
   2  H1      1.00   -1.188923792   -2.359180490    0.723479130
   3  H2      1.00   -2.121413417   -0.313995842   -1.337480312
   4  C1      6.00   -1.921680312    1.112077561    2.243810639
   5  H3      1.00   -1.724865801    3.071847594    1.662054109
   6  H4      1.00   -3.882890689    0.784391545    2.793966869
   7  H5      1.00   -0.727588732    0.848110778    3.893996460
   8  O1      0.00    4.023106789    1.759569494    0.398270443
   9  H6      0.00    2.478222786    0.821750408    0.071058880
  10  H7      0.00    5.122741159    1.271079315   -0.954293648

 Bond lengths in Bohr (Angstrom)

 1-2  1.912160531  1-3  1.912068990  1-4  2.773779184  4-5  2.053746623  4-6  2.063103522
     ( 1.011871777)     ( 1.011823335)     ( 1.467820732)     ( 1.086795910)     ( 1.091747368)

  4- 7  2.053934373   8- 9  1.836637860   8-10  1.810317105
       ( 1.086895263)       ( 0.971906900)       ( 0.957978557)

 Bond angles

  1-4-5  108.92232450   1-4-6  114.54691082   1-4-7  108.89704664   2-1-3  105.77144003

  2-1-4  109.53896726   3-1-4  109.54911813   5-4-6  108.55407820   5-4-7  107.12795866

  6- 4- 7  108.54184765   9- 8-10  103.88906570

 NUCLEAR CHARGE:                   18
 NUMBER OF PRIMITIVE AOS:         390
 NUMBER OF SYMMETRY AOS:          349
 NUMBER OF CONTRACTIONS:          299   (  299A   )
 NUMBER OF CORE ORBITALS:           2   (    2A   )
 NUMBER OF VALENCE ORBITALS:       13   (   13A   )

 MOLECULE CHANGED: INITIALIZING OCCUPATION AND DUMP RECORDS


 NUCLEAR REPULSION ENERGY   42.04336543


 Eigenvalues of metric

         1 0.290E-04 0.360E-04 0.578E-04 0.615E-04 0.114E-03 0.132E-03 0.176E-03 0.265E-03


 OPERATOR DM      FOR CENTER  0  COORDINATES:    0.000000    0.000000    0.000000


 **********************************************************************************************************************************
 DATASETS  * FILE   NREC   LENGTH (MB)   RECORD NAMES
              1      19       33.42       500      610      700      900      950      970     1000      129      960     1100   
                                          VAR    BASINP    GEOM    SYMINP    ZMAT    AOBASIS   BASIS     P2S    ABASIS      S 
                                         1400     1410     1200     1210     1080     1600     1650     1700     1800   
                                           T        V       H0       H01     AOSYM     SMH    MOLCAS    OPER     GRID   

              2       5        4.75       700     1000      520     1800     2101   
                                         GEOM     BASIS   MCVARS    GRID      RKS  

 PROGRAMS   *        TOTAL       INT   RKS-SCF       INT
 CPU TIMES  *       117.42      0.13    116.65      0.45
 REAL TIME  *       120.37 SEC
 DISK USED  *        44.35 MB (local),      177.39 MB (total)
 SF USED    *         1.08 MB
 GA USED    *         2.79 MB       (max)       2.79 MB       (current)
 **********************************************************************************************************************************

 Density functional group PBE=PBEX+PBEC
 Functional: PBEX(Automatically generated (new) PBEX)                          Gradient terms: 1
 Functional: PBEC(Automatically generated (new) PBEC)                          Gradient terms: 1
 Use libxcgrid:  F
 Use grid at  1800.2

 Functional: PBEX                      Factor:  1.0000
 Functional: PBEC                      Factor:  1.0000

 Generated new metagrid on record  1800.2 with target accuracy 1.0D-08 and 85042 points in CPU time    0.3
 Computed new grid on record 1800.1 in CPU time    0.4
  241946 words reserved for DFT integration

 PROGRAM * RKS-SCF (Restricted closed shell Kohn-Sham)     Authors: W. Meyer, H.-J. Werner, P.J. Knowles, 1993

 NUMBER OF ELECTRONS:       9+    9-    SPACE SYMMETRY=1    SPIN SYMMETRY: Singlet 
 CONVERGENCE THRESHOLDS:    1.00E-04 (Density)    1.00E-08 (Energy)
 INTEGRAL THRESHOLDS:       1.00E-11 (Initial)    1.00E-11 (Final)
 MAX. NUMBER OF ITERATIONS:       60
 INTERPOLATION TYPE:            DIIS
 INTERPOLATION STEPS:              2 (START)      1 (STEP)
 LEVEL SHIFTS:                  0.00 (CLOSED)  0.00 (OPEN) 



 Use fine grid record 1800.2 for energy threshold  1.0D-08
 Orbital guess generated from atomic densities. Full valence occupancy:   15

 Molecular orbital dump at record        2201.2

 Initial occupancy:   9

 Direct Fock-matrix evaluation.        Authors: Roland Lindh & Martin Schuetz (1993/96)

 Integral Threshold:                  0.1D-10
 Threshold for writing integrals:     0.1D-06
 Prescreening on density matrix:        ON 
 Calculation will be performed fully direct        

 ITERATION   DDIFF            GRAD            ENERGY        2-EL.EN.            DIPOLE MOMENTS         DIIS   CPU(IT)  CPU(TOT)
    1      0.000D+00      0.000D+00       -95.63194003    183.368078   -0.79240   -0.24433    0.11679    0     12.6     16.7     start
    2      0.000D+00      0.723D-02       -95.30630701    161.656900    0.24115    0.19772    0.08375    1     11.7     28.4     diag
    3      0.127D-01      0.132D-01       -95.76116819    176.199514   -0.58238   -0.11032    0.15448    2     11.7     40.1     diag
    4      0.831D-02      0.148D-02       -95.76517195    175.873650   -0.47990   -0.14530    0.07327    3     11.4     51.4     diag
    5      0.117D-02      0.670D-03       -95.76616429    175.700634   -0.49326   -0.13050    0.09389    4     11.3     62.7     diag
    6      0.487D-03      0.109D-03       -95.76619084    175.719908   -0.49312   -0.13047    0.09391    5     11.2     73.9     diag
    7      0.596D-04      0.117D-04       -95.76619119    175.730528   -0.49436   -0.13039    0.09453    6     10.7     84.6     diag
    8      0.816D-05      0.109D-05       -95.76619120    175.730294   -0.49406   -0.13052    0.09429    7     10.0     94.6     diag
    9      0.115D-05      0.305D-06       -95.76619120    175.730221   -0.49418   -0.13048    0.09437    0      9.7    104.2     orth

 Final occupancy:   9

 !RKS STATE  1.1 Energy               -95.766191196677
 Nuclear energy                        42.04336543
 One-electron energy                 -211.60196711
 Two-electron energy                   87.86511045
 Density functional                   -14.07269997     PBEX=-13.49979292 PBEC= -0.57290706
 Virial quotient                       -1.00581864
 !RKS STATE  1.1 Dipole moment         -0.49417716    -0.13047929     0.09437025
 Dipole moment /Debye                  -1.25599077    -0.33162356     0.23984954

 Orbital energies:

         1.1          2.1          3.1          4.1          5.1          6.1          7.1          8.1          9.1         10.1
    -13.967894    -9.896446    -0.800105    -0.596997    -0.440660    -0.394365    -0.358747    -0.324118    -0.200576    -0.022111

        11.1
      0.002206


 HOMO      9.1    -0.200576 =      -5.4579eV
 LUMO     10.1    -0.022111 =      -0.6017eV
 LUMO-HOMO         0.178465 =       4.8563eV


 **********************************************************************************************************************************
 DATASETS  * FILE   NREC   LENGTH (MB)   RECORD NAMES
              1      19       33.42       500      610      700      900      950      970     1000      129      960     1100   
                                          VAR    BASINP    GEOM    SYMINP    ZMAT    AOBASIS   BASIS     P2S    ABASIS      S 
                                         1400     1410     1200     1210     1080     1600     1650     1700     1800   
                                           T        V       H0       H01     AOSYM     SMH    MOLCAS    OPER     GRID   

              2       6       10.83       700     1000      520     1800     2101     2201   
                                         GEOM     BASIS   MCVARS    GRID      RKS      RKS  

 PROGRAMS   *        TOTAL   RKS-SCF       INT   RKS-SCF       INT
 CPU TIMES  *       222.12    104.70      0.13    116.65      0.45
 REAL TIME  *       225.79 SEC
 DISK USED  *        50.07 MB (local),      200.29 MB (total)
 SF USED    *         1.08 MB
 GA USED    *         2.79 MB       (max)       2.79 MB       (current)
 **********************************************************************************************************************************
 SETTING EA_PBE         =       -95.76619120  AU                              

 Dummy atoms: N1  H1  H2  C1  H3  H4  H5


 Recomputing one-electron integrals since nuclear charges changed


 PROGRAM * SEWARD (Integral evaluation for generally contracted gaussian basis sets)     Author: Roland Lindh, 1990

 Geometry written to block  1 of record 700


 Point group  C1  



 ATOMIC COORDINATES

 NR  ATOM    CHARGE       X              Y              Z

   1  N1      0.00   -1.008100797   -0.528355164    0.202192677
   2  H1      0.00   -1.188923792   -2.359180490    0.723479130
   3  H2      0.00   -2.121413417   -0.313995842   -1.337480312
   4  C1      0.00   -1.921680312    1.112077561    2.243810639
   5  H3      0.00   -1.724865801    3.071847594    1.662054109
   6  H4      0.00   -3.882890689    0.784391545    2.793966869
   7  H5      0.00   -0.727588732    0.848110778    3.893996460
   8  O1      8.00    4.023106789    1.759569494    0.398270443
   9  H6      1.00    2.478222786    0.821750408    0.071058880
  10  H7      1.00    5.122741159    1.271079315   -0.954293648

 Bond lengths in Bohr (Angstrom)

 1-2  1.912160531  1-3  1.912068990  1-4  2.773779184  4-5  2.053746623  4-6  2.063103522
     ( 1.011871777)     ( 1.011823335)     ( 1.467820732)     ( 1.086795910)     ( 1.091747368)

  4- 7  2.053934373   8- 9  1.836637860   8-10  1.810317105
       ( 1.086895263)       ( 0.971906900)       ( 0.957978557)

 Bond angles

  1-4-5  108.92232450   1-4-6  114.54691082   1-4-7  108.89704664   2-1-3  105.77144003

  2-1-4  109.53896726   3-1-4  109.54911813   5-4-6  108.55407820   5-4-7  107.12795866

  6- 4- 7  108.54184765   9- 8-10  103.88906570

 NUCLEAR CHARGE:                   10
 NUMBER OF PRIMITIVE AOS:         390
 NUMBER OF SYMMETRY AOS:          349
 NUMBER OF CONTRACTIONS:          299   (  299A   )
 NUMBER OF CORE ORBITALS:           1   (    1A   )
 NUMBER OF VALENCE ORBITALS:        6   (    6A   )

 MOLECULE CHANGED: INITIALIZING OCCUPATION AND DUMP RECORDS


 NUCLEAR REPULSION ENERGY    9.12312499


 Eigenvalues of metric

         1 0.290E-04 0.360E-04 0.578E-04 0.615E-04 0.114E-03 0.132E-03 0.176E-03 0.265E-03


 OPERATOR DM      FOR CENTER  0  COORDINATES:    0.000000    0.000000    0.000000


 **********************************************************************************************************************************
 DATASETS  * FILE   NREC   LENGTH (MB)   RECORD NAMES
              1      19       33.42       500      610      700      900      950      970     1000      129      960     1100   
                                          VAR    BASINP    GEOM    SYMINP    ZMAT    AOBASIS   BASIS     P2S    ABASIS      S 
                                         1400     1410     1200     1210     1080     1600     1650     1700     1800   
                                           T        V       H0       H01     AOSYM     SMH    MOLCAS    OPER     GRID   

              2       6       10.83       700     1000      520     1800     2101     2201   
                                         GEOM     BASIS   MCVARS    GRID      RKS      RKS  

 PROGRAMS   *        TOTAL       INT   RKS-SCF       INT   RKS-SCF       INT
 CPU TIMES  *       222.23      0.10    104.70      0.13    116.65      0.45
 REAL TIME  *       226.02 SEC
 DISK USED  *        50.07 MB (local),      200.29 MB (total)
 SF USED    *         1.08 MB
 GA USED    *         2.79 MB       (max)       2.79 MB       (current)
 **********************************************************************************************************************************

 Density functional group PBE=PBEX+PBEC
 Functional: PBEX(Automatically generated (new) PBEX)                          Gradient terms: 1
 Functional: PBEC(Automatically generated (new) PBEC)                          Gradient terms: 1
 Use libxcgrid:  F
 Use grid at  1800.2

 Functional: PBEX                      Factor:  1.0000
 Functional: PBEC                      Factor:  1.0000

 Generated new metagrid on record  1800.2 with target accuracy 1.0D-08 and 85042 points in CPU time    0.3
 Computed new grid on record 1800.1 in CPU time    0.3
  241946 words reserved for DFT integration

 PROGRAM * RKS-SCF (Restricted closed shell Kohn-Sham)     Authors: W. Meyer, H.-J. Werner, P.J. Knowles, 1993

 NUMBER OF ELECTRONS:       5+    5-    SPACE SYMMETRY=1    SPIN SYMMETRY: Singlet 
 CONVERGENCE THRESHOLDS:    1.00E-04 (Density)    1.00E-08 (Energy)
 INTEGRAL THRESHOLDS:       1.00E-11 (Initial)    1.00E-11 (Final)
 MAX. NUMBER OF ITERATIONS:       60
 INTERPOLATION TYPE:            DIIS
 INTERPOLATION STEPS:              2 (START)      1 (STEP)
 LEVEL SHIFTS:                  0.00 (CLOSED)  0.00 (OPEN) 



 Use fine grid record 1800.2 for energy threshold  1.0D-08
 Orbital guess generated from atomic densities. Full valence occupancy:    7

 Molecular orbital dump at record        2301.2

 Initial occupancy:   5

 Direct Fock-matrix evaluation.        Authors: Roland Lindh & Martin Schuetz (1993/96)

 Integral Threshold:                  0.1D-10
 Threshold for writing integrals:     0.1D-06
 Prescreening on density matrix:        ON 
 Calculation will be performed fully direct        

 ITERATION   DDIFF            GRAD            ENERGY        2-EL.EN.            DIPOLE MOMENTS         DIIS   CPU(IT)  CPU(TOT)
    1      0.000D+00      0.000D+00       -76.29673134     98.030105   -0.22351   -0.70109   -0.82274    0     12.6     16.7     start
    2      0.000D+00      0.887D-02       -75.92072718     81.887090    0.12162    0.28366    0.31462    1     11.6     28.2     diag
    3      0.953D-02      0.201D-01       -76.37987244     93.484895   -0.14505   -0.46844   -0.55236    2     11.5     39.7     diag
    4      0.664D-02      0.508D-03       -76.38025024     93.099661   -0.13828   -0.45052   -0.53202    3     11.0     50.7     diag
    5      0.231D-03      0.118D-03       -76.38026374     93.148548   -0.13815   -0.44940   -0.53056    4     10.8     61.5     diag
    6      0.413D-04      0.277D-04       -76.38026462     93.160342   -0.13862   -0.45090   -0.53232    5     10.5     72.0     diag
    7      0.939D-05      0.909D-06       -76.38026462     93.160592   -0.13861   -0.45085   -0.53226    6      9.7     81.7     diag
    8      0.435D-06      0.811D-07       -76.38026462     93.160700   -0.13861   -0.45086   -0.53228    0      7.7     89.5     orth

 Final occupancy:   5

 !RKS STATE  1.1 Energy               -76.380264620284
 Nuclear energy                         9.12312499
 One-electron energy                 -122.85455083
 Two-electron energy                   46.58035005
 Density functional                    -9.22918883     PBEX=-8.90477051 PBEC=-0.32441833
 Virial quotient                       -1.00566220
 !RKS STATE  1.1 Dipole moment         -0.13861202    -0.45086259    -0.53227676
 Dipole moment /Debye                  -0.35229355    -1.14590334    -1.35282397

 Orbital energies:

         1.1          2.1          3.1          4.1          5.1          6.1          7.1
    -18.760888    -0.930407    -0.481763    -0.343870    -0.265940    -0.035161     0.014132


 HOMO      5.1    -0.265940 =      -7.2366eV
 LUMO      6.1    -0.035161 =      -0.9568eV
 LUMO-HOMO         0.230779 =       6.2798eV


 **********************************************************************************************************************************
 DATASETS  * FILE   NREC   LENGTH (MB)   RECORD NAMES
              1      19       33.42       500      610      700      900      950      970     1000      129      960     1100   
                                          VAR    BASINP    GEOM    SYMINP    ZMAT    AOBASIS   BASIS     P2S    ABASIS      S 
                                         1400     1410     1200     1210     1080     1600     1650     1700     1800   
                                           T        V       H0       H01     AOSYM     SMH    MOLCAS    OPER     GRID   

              2       7       16.91       700     1000      520     1800     2101     2201     2301   
                                         GEOM     BASIS   MCVARS    GRID      RKS      RKS      RKS  

 PROGRAMS   *        TOTAL   RKS-SCF       INT   RKS-SCF       INT   RKS-SCF       INT
 CPU TIMES  *       312.11     89.87      0.10    104.70      0.13    116.65      0.45
 REAL TIME  *       316.57 SEC
 DISK USED  *        55.80 MB (local),      223.19 MB (total)
 SF USED    *         1.08 MB
 GA USED    *         2.79 MB       (max)       2.79 MB       (current)
 **********************************************************************************************************************************
 SETTING EB_PBE         =       -76.38026462  AU                              
 SETTING E_AB_INT       =        -0.01134588  AU                              

 *** results in hartree
 E_AB_INT         =        -0.01134588 AU
 Molecular orbitals read from record     2301.2  Type=RKS/CANONICAL (state 1.1)
 Occupation numbers read from record     2301.2  Type=RKS/RHF (state 1.1)
 Orbital energies read from record       2301.2  Type=RKS/CANONICAL (state 1.1)
 Redundancy group numbers read from rec  2301.2  Type=RKS/RHF (state 1.1)

 RPBE/aug-cc-pVTZ energy=    -76.380264620284

         RKS-SCF         RKS-SCF         RKS-SCF
    -76.38026462    -95.76619120   -172.15780170
 **********************************************************************************************************************************
 Molpro calculation terminated
Wed 20 Nov 2019 09:14:52 AM CET
