 vasp.5.4.1 24Jun15 (build Jan 02 2020 16:21:29) gamma-only                     
  
 executed on           IFC15_impi date 2020.04.24  09:43:16
 running on   32 total cores
 distrk:  each k-point on   32 cores,    1 groups
 distr:  one band on NCORES_PER_BAND=   8 cores,    4 groups


--------------------------------------------------------------------------------------------------------


 INCAR:
 POTCAR:    PAW_PBE N_s 07Sep2000                 
 POTCAR:    PAW_PBE C_s 06Sep2000                 
 POTCAR:    PAW_PBE H_s 15May2010                 
 POTCAR:    PAW_PBE N_s 07Sep2000                 
   VRHFIN =N: s2p3                                                              
   LEXCH  = PE                                                                  
   EATOM  =   264.5486 eV,   19.4438 Ry                                         
                                                                                
   TITEL  = PAW_PBE N_s 07Sep2000                                               
   LULTRA =        F    use ultrasoft PP ?                                      
   IUNSCR =        0    unscreen: 0-lin 1-nonlin 2-no                           
   RPACOR =    0.000    partial core radius                                     
   POMASS =   14.001; ZVAL   =    5.000    mass and valenz                      
   RCORE  =    1.850    outmost cutoff radius                                   
   RWIGS  =    1.850; RWIGS  =    0.979    wigner-seitz radius (au A)           
   ENMAX  =  279.692; ENMIN  =  209.769 eV                                      
   RCLOC  =    0.803    cutoff for local pot                                    
   LCOR   =        T    correct aug charges                                     
   LPAW   =        T    paw PP                                                  
   EAUG   =  384.743                                                            
   DEXC   =    0.000                                                            
   RMAX   =    1.893    core radius for proj-oper                               
   RAUG   =    1.300    factor for augmentation sphere                          
   RDEP   =    1.933    radius for radial grids                                 
   RDEPT  =    1.632    core radius for aug-charge                              
                                                                                
   Atomic configuration                                                         
    4 entries                                                                   
     n  l   j            E        occ.                                          
     1  0  0.50      -384.7179   2.0000                                         
     2  0  0.50       -18.5828   2.0000                                         
     2  1  0.50        -7.0898   3.0000                                         
     3  2  1.50        -1.3606   0.0000                                         
   Description                                                                  
     l       E           TYP  RCUT    TYP  RCUT                                 
     0    -18.5828119     23  1.500                                             
     0    -19.9433945     23  1.500                                             
     1     -7.0897853     23  1.850                                             
     1     -4.8150613     23  1.850                                             
  local pseudopotential read in
  atomic valenz-charges read in
  non local Contribution for L=           0  read in
    real space projection operators read in
  non local Contribution for L=           0  read in
    real space projection operators read in
  non local Contribution for L=           1  read in
    real space projection operators read in
  non local Contribution for L=           1  read in
    real space projection operators read in
    PAW grid and wavefunctions read in
 
   number of l-projection  operators is LMAX  =           4
   number of lm-projection operators is LMMAX =           8
 
 POTCAR:    PAW_PBE C_s 06Sep2000                 
   VRHFIN =C: s2p2                                                              
   LEXCH  = PE                                                                  
   EATOM  =   147.1560 eV,   10.8157 Ry                                         
                                                                                
   TITEL  = PAW_PBE C_s 06Sep2000                                               
   LULTRA =        F    use ultrasoft PP ?                                      
   IUNSCR =        0    unscreen: 0-lin 1-nonlin 2-no                           
   RPACOR =    0.000    partial core radius                                     
   POMASS =   12.011; ZVAL   =    4.000    mass and valenz                      
   RCORE  =    1.850    outmost cutoff radius                                   
   RWIGS  =    1.890; RWIGS  =    1.000    wigner-seitz radius (au A)           
   ENMAX  =  273.911; ENMIN  =  205.433 eV                                      
   RCLOC  =    0.804    cutoff for local pot                                    
   LCOR   =        T    correct aug charges                                     
   LPAW   =        T    paw PP                                                  
   EAUG   =  439.243                                                            
   DEXC   =    0.000                                                            
   RMAX   =    1.897    core radius for proj-oper                               
   RAUG   =    1.300    factor for augmentation sphere                          
   RDEP   =    1.940    radius for radial grids                                 
   RDEPT  =    1.573    core radius for aug-charge                              
                                                                                
   Atomic configuration                                                         
    4 entries                                                                   
     n  l   j            E        occ.                                          
     1  0  0.50      -273.3789   2.0000                                         
     2  0  0.50       -13.7508   2.0000                                         
     2  1  0.50        -5.2854   2.0000                                         
     3  2  1.50        -1.3606   0.0000                                         
   Description                                                                  
     l       E           TYP  RCUT    TYP  RCUT                                 
     0    -13.7508457     23  1.500                                             
     0    -11.0934578     23  1.500                                             
     1     -5.2854381     23  1.850                                             
     1     -1.3099858     23  1.850                                             
  local pseudopotential read in
  atomic valenz-charges read in
  non local Contribution for L=           0  read in
    real space projection operators read in
  non local Contribution for L=           0  read in
    real space projection operators read in
  non local Contribution for L=           1  read in
    real space projection operators read in
  non local Contribution for L=           1  read in
    real space projection operators read in
    PAW grid and wavefunctions read in
 
   number of l-projection  operators is LMAX  =           4
   number of lm-projection operators is LMMAX =           8
 
 POTCAR:    PAW_PBE H_s 15May2010                 
   VRHFIN =H: ultrasoft test                                                    
   LEXCH  = PE                                                                  
   EATOM  =    12.4884 eV,    0.9179 Ry                                         
                                                                                
   TITEL  = PAW_PBE H_s 15May2010                                               
   LULTRA =        F    use ultrasoft PP ?                                      
   IUNSCR =        0    unscreen: 0-lin 1-nonlin 2-no                           
   RPACOR =    0.000    partial core radius                                     
   POMASS =    1.000; ZVAL   =    1.000    mass and valenz                      
   RCORE  =    1.300    outmost cutoff radius                                   
   RWIGS  =    0.700; RWIGS  =    0.370    wigner-seitz radius (au A)           
   ENMAX  =  200.000; ENMIN  =  150.000 eV                                      
   RCLOC  =    0.701    cutoff for local pot                                    
   LCOR   =        T    correct aug charges                                     
   LPAW   =        T    paw PP                                                  
   EAUG   =  300.000                                                            
   RMAX   =    1.330    core radius for proj-oper                               
   RAUG   =    1.200    factor for augmentation sphere                          
   RDEP   =    1.337    radius for radial grids                                 
   RDEPT  =    1.114    core radius for aug-charge                              
                                                                                
   Atomic configuration                                                         
    2 entries                                                                   
     n  l   j            E        occ.                                          
     1  0  0.50        -6.4927   1.0000                                         
     2  1  0.50        -3.4015   0.0000                                         
   Description                                                                  
     l       E           TYP  RCUT    TYP  RCUT                                 
     0     -6.4927494     23  1.300                                             
     0      6.8029130     23  1.300                                             
     1     -4.0817478     23  1.300                                             
  local pseudopotential read in
  atomic valenz-charges read in
  non local Contribution for L=           0  read in
    real space projection operators read in
  non local Contribution for L=           0  read in
    real space projection operators read in
  non local Contribution for L=           1  read in
    real space projection operators read in
    PAW grid and wavefunctions read in
 
   number of l-projection  operators is LMAX  =           3
   number of lm-projection operators is LMMAX =           5
 
  PAW_PBE N_s 07Sep2000                 :
 energy of atom  1       EATOM= -264.5486
 kinetic energy error for atom=    0.0003 (will be added to EATOM!!)
  PAW_PBE C_s 06Sep2000                 :
 energy of atom  2       EATOM= -147.1560
 kinetic energy error for atom=    0.0002 (will be added to EATOM!!)
  PAW_PBE H_s 15May2010                 :
 energy of atom  3       EATOM=  -12.4884
 kinetic energy error for atom=    0.0000 (will be added to EATOM!!)
 
 
 POSCAR: N C H                                   
  positions in cartesian coordinates
  No initial velocities read in
 exchange correlation table for  LEXCH =        8
   RHO(1)=    0.500       N(1)  =     2000
   RHO(2)=  100.500       N(2)  =     4000
 


--------------------------------------------------------------------------------------------------------


 ion  position               nearest neighbor table
   1  0.042  0.028  0.000-   4 1.34   5 1.34
   2  0.973  0.070  0.000-   3 1.34   6 1.34
   3  0.990  0.059  0.032-   7 1.08   2 1.34   4 1.39   6 2.26
   4  0.024  0.039  0.032-   8 1.08   1 1.34   3 1.39   5 2.26
   5  0.024  0.039  0.968-   9 1.08   1 1.34   6 1.39   4 2.26
   6  0.990  0.059  0.968-  10 1.08   2 1.34   5 1.39   3 2.26
   7  0.977  0.068  0.059-   3 1.08
   8  0.038  0.030  0.059-   4 1.08
   9  0.038  0.030  0.941-   5 1.08
  10  0.977  0.068  0.941-   6 1.08
 
  LATTYP: Found a simple cubic cell.
 ALAT       =    35.0000000000
  
  Lattice vectors:
  
 A1 = (  35.0000000000,   0.0000000000,   0.0000000000)
 A2 = (   0.0000000000,  35.0000000000,   0.0000000000)
 A3 = (   0.0000000000,   0.0000000000,  35.0000000000)


Analysis of symmetry for initial positions (statically):
=====================================================================
 Subroutine PRICEL returns:
 Original cell was already a primitive cell.
 

 Routine SETGRP: Setting up the symmetry group for a 
 simple cubic supercell.


 Subroutine GETGRP returns: Found  2 space group operations
 (whereof  2 operations were pure point group operations)
 out of a pool of 48 trial point group operations.


The static configuration has the point symmetry C_1h.


Analysis of symmetry for dynamics (positions and initial velocities):
=====================================================================
 Subroutine PRICEL returns:
 Original cell was already a primitive cell.
 

 Routine SETGRP: Setting up the symmetry group for a 
 simple cubic supercell.


 Subroutine GETGRP returns: Found  2 space group operations
 (whereof  2 operations were pure point group operations)
 out of a pool of 48 trial point group operations.


The dynamic configuration has the point symmetry C_1h.
 
 
 KPOINTS: automatic mesh                          

Automatic generation of k-mesh.
Space group operators:
 irot       det(A)        alpha          n_x          n_y          n_z        tau_x        tau_y        tau_z
    1     1.000000     0.000000     1.000000     0.000000     0.000000     0.000000     0.000000     0.000000
    2    -1.000000   180.000000     0.000000     0.000000     1.000000     0.000000     0.000000     0.000000
 
 Subroutine IBZKPT returns following result:
 ===========================================
 
 Found      1 irreducible k-points:
 
 Following reciprocal coordinates:
            Coordinates               Weight
  0.000000  0.000000  0.000000      1.000000
 
 Following cartesian coordinates:
            Coordinates               Weight
  0.000000  0.000000  0.000000      1.000000
 


--------------------------------------------------------------------------------------------------------




 Dimension of arrays:
   k-points           NKPTS =      1   k-points in BZ     NKDIM =      1   number of bands    NBANDS=     24
   number of dos      NEDOS =    301   number of ions     NIONS =     10
   non local maximal  LDIM  =      4   non local SUM 2l+1 LMDIM =      8
   total plane-waves  NPLWV = ******
   max r-space proj   IRMAX =      1   max aug-charges    IRDMAX=  32454
   dimension x,y,z NGX =   378 NGY =  378 NGZ =  378
   dimension x,y,z NGXF=   756 NGYF=  756 NGZF=  756
   support grid    NGXF=   756 NGYF=  756 NGZF=  756
   ions per type =               2   4   4
 NGX,Y,Z   is equivalent  to a cutoff of  17.95, 17.95, 17.95 a.u.
 NGXF,Y,Z  is equivalent  to a cutoff of  35.91, 35.91, 35.91 a.u.


 I would recommend the setting:
   dimension x,y,z NGX =   361 NGY =  361 NGZ =  361
 SYSTEM =  C                                       
 POSCAR =  N C H                                   

 Startparameter for this run:
   NWRITE =      2    write-flag & timer
   PREC   = acc       normal or accurate (medium, high low for compatibility)
   ISTART =      0    job   : 0-new  1-cont  2-samecut
   ICHARG =      2    charge: 1-file 2-atom 10-const
   ISPIN  =      1    spin polarized calculation?
   LNONCOLLINEAR =      F non collinear calculations
   LSORBIT =      F    spin-orbit coupling
   INIWAV =      1    electr: 0-lowe 1-rand  2-diag
   LASPH  =      T    aspherical Exc in radial PAW
   METAGGA=      F    non-selfconsistent MetaGGA calc.

 Electronic Relaxation 1
   ENCUT  = 1000.0 eV  73.50 Ry    8.57 a.u.  90.25 90.25 90.25*2*pi/ulx,y,z
   ENINI  = 1000.0     initial cutoff
   ENAUG  =  439.2 eV  augmentation charge cutoff
   NELM   =     60;   NELMIN=  2; NELMDL= -5     # of ELM steps 
   EDIFF  = 0.1E-06   stopping-criterion for ELM
   LREAL  =      F    real-space projection
   NLSPLINE    = F    spline interpolate recip. space projectors
   LCOMPAT=      F    compatible to vasp.4.4
   GGA_COMPAT  = T    GGA compatible to vasp.4.4-vasp.4.6
   LMAXPAW     = -100 max onsite density
   LMAXMIX     =    2 max onsite mixed and CHGCAR
   VOSKOWN=      0    Vosko Wilk Nusair interpolation
   ROPT   =    0.00000   0.00000   0.00000
 Ionic relaxation
   EDIFFG = 0.1E-05   stopping-criterion for IOM
   NSW    =      0    number of steps for IOM
   NBLOCK =      1;   KBLOCK =      1    inner block; outer block 
   IBRION =     -1    ionic relax: 0-MD 1-quasi-New 2-CG
   NFREE  =      0    steps in history (QN), initial steepest desc. (CG)
   ISIF   =      2    stress and relaxation
   IWAVPR =     10    prediction:  0-non 1-charg 2-wave 3-comb
   ISYM   =      2    0-nonsym 1-usesym 2-fastsym
   LCORR  =      T    Harris-Foulkes like correction to forces

   POTIM  = 0.5000    time-step for ionic-motion
   TEIN   =    0.0    initial temperature
   TEBEG  =    0.0;   TEEND  =   0.0 temperature during run
   SMASS  =  -3.00    Nose mass-parameter (am)
   estimated Nose-frequenzy (Omega)   =  0.10E-29 period in steps =****** mass=  -0.280E-25a.u.
   SCALEE = 1.0000    scale energy and forces
   NPACO  =    256;   APACO  = 16.0  distance and # of slots for P.C.
   PSTRESS=    0.0 pullay stress

  Mass of Ions in am
   POMASS =  14.00 12.01  1.00
  Ionic Valenz
   ZVAL   =   5.00  4.00  1.00
  Atomic Wigner-Seitz radii
   RWIGS  =  -1.00 -1.00 -1.00
  virtual crystal weights 
   VCA    =   1.00  1.00  1.00
   NELECT =      30.0000    total number of electrons
   NUPDOWN=      -1.0000    fix difference up-down

 DOS related values:
   EMIN   =  10.00;   EMAX   =-10.00  energy-range for DOS
   EFERMI =   0.00
   ISMEAR =     0;   SIGMA  =   0.01  broadening in eV -4-tet -1-fermi 0-gaus

 Electronic relaxation 2 (details)
   IALGO  =     38    algorithm
   LDIAG  =      T    sub-space diagonalisation (order eigenvalues)
   LSUBROT=      F    optimize rotation matrix (better conditioning)
   TURBO    =      0    0=normal 1=particle mesh
   IRESTART =      0    0=no restart 2=restart with 2 vectors
   NREBOOT  =      0    no. of reboots
   NMIN     =      0    reboot dimension
   EREF     =   0.00    reference energy to select bands
   IMIX   =      4    mixing-type and parameters
     AMIX     =   0.40;   BMIX     =  1.00
     AMIX_MAG =   1.60;   BMIX_MAG =  1.00
     AMIN     =   0.10
     WC   =   100.;   INIMIX=   1;  MIXPRE=   1;  MAXMIX= -45

 Intra band minimization:
   WEIMIN = 0.0000     energy-eigenvalue tresh-hold
   EBREAK =  0.10E-08  absolut break condition
   DEPER  =   0.30     relativ break condition  

   TIME   =   0.40     timestep for ELM

  volume/ion in A,a.u.               =    4287.50     28933.48
  Fermi-wavevector in a.u.,A,eV,Ry     =   0.145338  0.274650  0.287399  0.021123
  Thomas-Fermi vector in A             =   0.812913
 
 Write flags
   LWAVE  =      T    write WAVECAR
   LCHARG =      T    write CHGCAR
   LVTOT  =      F    write LOCPOT, total local potential
   LVHAR  =      F    write LOCPOT, Hartree potential only
   LELF   =      F    write electronic localiz. function (ELF)
   LORBIT =      0    0 simple, 1 ext, 2 COOP (PROOUT)


 Dipole corrections
   LMONO  =      F    monopole corrections only (constant potential shift)
   LDIPOL =      F    correct potential (dipole corrections)
   IDIPOL =      0    1-x, 2-y, 3-z, 4-all directions 
   EPSILON=  1.0000000 bulk dielectric constant

 Exchange correlation treatment:
   GGA     =    --    GGA type
   LEXCH   =     8    internal setting for exchange type
   VOSKOWN=      0    Vosko Wilk Nusair interpolation
   LHFCALC =     F    Hartree Fock is set to
   LHFONE  =     F    Hartree Fock one center treatment
   AEXX    =    0.0000 exact exchange contribution

 Linear response parameters
   LEPSILON=     F    determine dielectric tensor
   LRPA    =     F    only Hartree local field effects (RPA)
   LNABLA  =     F    use nabla operator in PAW spheres
   LVEL    =     F    velocity operator in full k-point grid
   LINTERFAST=   F  fast interpolation
   KINTER  =     0    interpolate to denser k-point grid
   CSHIFT  =0.1000    complex shift for real part using Kramers Kronig
   OMEGAMAX=  -1.0    maximum frequency
   DEG_THRESHOLD= 0.2000000E-02 threshold for treating states as degnerate
   RTIME   =    0.100 relaxation time in fs

 Orbital magnetization related:
   ORBITALMAG=     F  switch on orbital magnetization
   LCHIMAG   =     F  perturbation theory with respect to B field
   DQ        =  0.001000  dq finite difference perturbation B field



--------------------------------------------------------------------------------------------------------


 Static calculation
 charge density and potential will be updated during run
 non-spin polarized calculation
 Variant of blocked Davidson
 Davidson routine will perform the subspace rotation
 perform sub-space diagonalisation
    after iterative eigenvector-optimisation
 modified Broyden-mixing scheme, WC =      100.0
 initial mixing is a Kerker type mixing with AMIX =  0.4000 and BMIX =      1.0000
 Hartree-type preconditioning will be used
 using additional bands            9
 reciprocal scheme for non local part
 calculate Harris-corrections to forces 
   (improved forces if not selfconsistent)
 use gradient corrections 
 use of overlap-Matrix (Vanderbilt PP)
 Gauss-broadening in eV      SIGMA  =   0.01


--------------------------------------------------------------------------------------------------------


  energy-cutoff  :     1000.00
  volume of cell :    42875.00
      direct lattice vectors                 reciprocal lattice vectors
    35.000000000  0.000000000  0.000000000     0.028571429  0.000000000  0.000000000
     0.000000000 35.000000000  0.000000000     0.000000000  0.028571429  0.000000000
     0.000000000  0.000000000 35.000000000     0.000000000  0.000000000  0.028571429

  length of vectors
    35.000000000 35.000000000 35.000000000     0.028571429  0.028571429  0.028571429


 
 k-points in units of 2pi/SCALE and weight: automatic mesh                          
   0.00000000  0.00000000  0.00000000       1.000
 
 k-points in reciprocal lattice and weights: automatic mesh                          
   0.00000000  0.00000000  0.00000000       1.000
 
 position of ions in fractional coordinates (direct lattice) 
   0.04200511  0.02830743  0.00000000
   0.97279126  0.07008240  0.00000000
   0.99034277  0.05943031  0.03228700
   0.02440071  0.03883849  0.03230374
   0.02440071  0.03883849  0.96769626
   0.99034277  0.05943031  0.96771300
   0.97684640  0.06755151  0.05891040
   0.03773880  0.03048746  0.05892569
   0.03773880  0.03048746  0.94107431
   0.97684640  0.06755151  0.94108960
 
 position of ions in cartesian coordinates  (Angst):
   1.47017900  0.99076000  0.00000000
  34.04769400  2.45288400  0.00000000
  34.66199700  2.08006100  1.13004500
   0.85402500  1.35934700  1.13063100
   0.85402500  1.35934700 33.86936900
  34.66199700  2.08006100 33.86995500
  34.18962400  2.36430300  2.06186400
   1.32085800  1.06706100  2.06239900
   1.32085800  1.06706100 32.93760100
  34.18962400  2.36430300 32.93813600
 


--------------------------------------------------------------------------------------------------------


 use parallel FFT for wavefunctions z direction half grid
 k-point  1 :   0.0000 0.0000 0.0000  plane waves: 1539209

 maximum and minimum number of plane-waves per node :    192406   192397

 maximum number of plane-waves:   1539209
 maximum index in each direction: 
   IXMAX=   90   IYMAX=   90   IZMAX=   90
   IXMIN=  -90   IYMIN=  -90   IZMIN=    0

 NGX is ok and might be reduce to 362
 NGY is ok and might be reduce to 362
 NGZ is ok and might be reduce to 362

 parallel 3D FFT for wavefunctions:
    minimum data exchange during FFTs selected (reduces bandwidth)
 parallel 3D FFT for charge:
    minimum data exchange during FFTs selected (reduces bandwidth)


 total amount of memory used by VASP on root node  1871889. kBytes
========================================================================

   base      :      30000. kBytes
   nonl-proj :      67727. kBytes
   fftplans  :     601440. kBytes
   grid      :    1154248. kBytes
   one-center:          3. kBytes
   wavefun   :      18471. kBytes
 
     INWAV:  cpu time    0.0000: real time    0.0000
 Broyden mixing: mesh for mixing (old mesh)
   NGX =181   NGY =181   NGZ =181
  (NGX  =756   NGY  =756   NGZ  =756)
  gives a total of ****** points

 initial charge density was supplied:
 charge density of overlapping atoms calculated
 number of electron      30.0000000 magnetization 
 keeping initial charge density in first step


--------------------------------------------------------------------------------------------------------


 Maximum index for augmentation-charges         1433 (set IRDMAX)


--------------------------------------------------------------------------------------------------------


 First call to EWALD:  gamma=   0.051
 Maximum number of real-space cells 3x 3x 3
 Maximum number of reciprocal cells 3x 3x 3

 FEWALD executed in parallel
    FEWALD:  cpu time    0.0037: real time    0.0037


----------------------------------------- Iteration    1(   1)  ---------------------------------------


    POTLOK:  cpu time    7.5361: real time    7.5599
    SETDIJ:  cpu time    0.0514: real time    0.0515
     EDDAV:  cpu time    6.0003: real time    6.0208
       DOS:  cpu time    0.0010: real time    0.0010
    --------------------------------------------
      LOOP:  cpu time   13.5903: real time   13.6366

 eigenvalue-minimisations  :    64
 total energy-change (2. order) : 0.2417617E+03  (-0.5585143E+03)
 number of electron      30.0000000 magnetization 
 augmentation part       30.0000000 magnetization 

 Free energy of the ion-electron system (eV)
  ---------------------------------------------------
  alpha Z        PSCENC =         0.06093630
  Ewald energy   TEWEN  =      2354.49035211
  -Hartree energ DENC   =     -3168.04154123
  -exchange      EXHF   =         0.00000000
  -V(xc)+E(xc)   XCENC  =       103.19563778
  PAW double counting   =       855.77604564     -861.19787322
  entropy T*S    EENTRO =        -0.00000077
  eigenvalues    EBANDS =      -210.19505999
  atomic energy  EATOM  =      1167.67322382
  Solvation  Ediel_sol  =         0.00000000
  ---------------------------------------------------
  free energy    TOTEN  =       241.76172046 eV

  energy without entropy =      241.76172122  energy(sigma->0) =      241.76172084


--------------------------------------------------------------------------------------------------------




----------------------------------------- Iteration    1(   2)  ---------------------------------------


     EDDAV:  cpu time    7.0651: real time    7.0894
       DOS:  cpu time    0.0010: real time    0.0010
    --------------------------------------------
      LOOP:  cpu time    7.0696: real time    7.0966

 eigenvalue-minimisations  :    80
 total energy-change (2. order) :-0.1348439E+03  (-0.1278566E+03)
 number of electron      30.0000000 magnetization 
 augmentation part       30.0000000 magnetization 

 Free energy of the ion-electron system (eV)
  ---------------------------------------------------
  alpha Z        PSCENC =         0.06093630
  Ewald energy   TEWEN  =      2354.49035211
  -Hartree energ DENC   =     -3168.04154123
  -exchange      EXHF   =         0.00000000
  -V(xc)+E(xc)   XCENC  =       103.19563778
  PAW double counting   =       855.77604564     -861.19787322
  entropy T*S    EENTRO =        -0.00000000
  eigenvalues    EBANDS =      -345.03894967
  atomic energy  EATOM  =      1167.67322382
  Solvation  Ediel_sol  =         0.00000000
  ---------------------------------------------------
  free energy    TOTEN  =       106.91783155 eV

  energy without entropy =      106.91783155  energy(sigma->0) =      106.91783155


--------------------------------------------------------------------------------------------------------




----------------------------------------- Iteration    1(   3)  ---------------------------------------


     EDDAV:  cpu time    6.5157: real time    6.5381
       DOS:  cpu time    0.0006: real time    0.0006
    --------------------------------------------
      LOOP:  cpu time    6.5204: real time    6.5456

 eigenvalue-minimisations  :    72
 total energy-change (2. order) :-0.1343731E+03  (-0.1338466E+03)
 number of electron      30.0000000 magnetization 
 augmentation part       30.0000000 magnetization 

 Free energy of the ion-electron system (eV)
  ---------------------------------------------------
  alpha Z        PSCENC =         0.06093630
  Ewald energy   TEWEN  =      2354.49035211
  -Hartree energ DENC   =     -3168.04154123
  -exchange      EXHF   =         0.00000000
  -V(xc)+E(xc)   XCENC  =       103.19563778
  PAW double counting   =       855.77604564     -861.19787322
  entropy T*S    EENTRO =        -0.00000000
  eigenvalues    EBANDS =      -479.41209937
  atomic energy  EATOM  =      1167.67322382
  Solvation  Ediel_sol  =         0.00000000
  ---------------------------------------------------
  free energy    TOTEN  =       -27.45531815 eV

  energy without entropy =      -27.45531815  energy(sigma->0) =      -27.45531815


--------------------------------------------------------------------------------------------------------




----------------------------------------- Iteration    1(   4)  ---------------------------------------


     EDDAV:  cpu time    6.5189: real time    6.5412
       DOS:  cpu time    0.0006: real time    0.0006
    --------------------------------------------
      LOOP:  cpu time    6.5237: real time    6.5481

 eigenvalue-minimisations  :    64
 total energy-change (2. order) :-0.4178091E+02  (-0.4175204E+02)
 number of electron      30.0000000 magnetization 
 augmentation part       30.0000000 magnetization 

 Free energy of the ion-electron system (eV)
  ---------------------------------------------------
  alpha Z        PSCENC =         0.06093630
  Ewald energy   TEWEN  =      2354.49035211
  -Hartree energ DENC   =     -3168.04154123
  -exchange      EXHF   =         0.00000000
  -V(xc)+E(xc)   XCENC  =       103.19563778
  PAW double counting   =       855.77604564     -861.19787322
  entropy T*S    EENTRO =        -0.00000000
  eigenvalues    EBANDS =      -521.19301149
  atomic energy  EATOM  =      1167.67322382
  Solvation  Ediel_sol  =         0.00000000
  ---------------------------------------------------
  free energy    TOTEN  =       -69.23623028 eV

  energy without entropy =      -69.23623028  energy(sigma->0) =      -69.23623028


--------------------------------------------------------------------------------------------------------




----------------------------------------- Iteration    1(   5)  ---------------------------------------


     EDDAV:  cpu time    7.1075: real time    7.1322
       DOS:  cpu time    0.0001: real time    0.0001
    CHARGE:  cpu time    4.2191: real time    4.2325
    MIXING:  cpu time    0.2003: real time    0.2008
    --------------------------------------------
      LOOP:  cpu time   11.5304: real time   11.5716

 eigenvalue-minimisations  :    72
 total energy-change (2. order) :-0.2679883E+01  (-0.2678017E+01)
 number of electron      30.0000000 magnetization 
 augmentation part        2.2255081 magnetization 

 Broyden mixing:
  rms(total) = 0.49090E+01    rms(broyden)= 0.49090E+01
  rms(prec ) = 0.49183E+01
  weight for this iteration     100.00

 Free energy of the ion-electron system (eV)
  ---------------------------------------------------
  alpha Z        PSCENC =         0.06093630
  Ewald energy   TEWEN  =      2354.49035211
  -Hartree energ DENC   =     -3168.04154123
  -exchange      EXHF   =         0.00000000
  -V(xc)+E(xc)   XCENC  =       103.19563778
  PAW double counting   =       855.77604564     -861.19787322
  entropy T*S    EENTRO =        -0.00000000
  eigenvalues    EBANDS =      -523.87289467
  atomic energy  EATOM  =      1167.67322382
  Solvation  Ediel_sol  =         0.00000000
  ---------------------------------------------------
  free energy    TOTEN  =       -71.91611346 eV

  energy without entropy =      -71.91611346  energy(sigma->0) =      -71.91611346


--------------------------------------------------------------------------------------------------------




----------------------------------------- Iteration    1(   6)  ---------------------------------------


    POTLOK:  cpu time    8.0503: real time    8.0717
    SETDIJ:  cpu time    0.1137: real time    0.1140
     EDDAV:  cpu time    7.7447: real time    7.7722
       DOS:  cpu time    0.0008: real time    0.0008
    CHARGE:  cpu time    4.1923: real time    4.2048
    MIXING:  cpu time    0.2048: real time    0.2053
    --------------------------------------------
      LOOP:  cpu time   20.3082: real time   20.3729

 eigenvalue-minimisations  :    80
 total energy-change (2. order) : 0.4417204E+01  (-0.6660446E+00)
 number of electron      30.0000000 magnetization 
 augmentation part        2.0167533 magnetization 

 Broyden mixing:
  rms(total) = 0.36629E+01    rms(broyden)= 0.36629E+01
  rms(prec ) = 0.36660E+01
  weight for this iteration     100.00

 eigenvalues of (default mixing * dielectric matrix)
  average eigenvalue GAMMA=   3.0718
  3.0718

 Free energy of the ion-electron system (eV)
  ---------------------------------------------------
  alpha Z        PSCENC =         0.06093630
  Ewald energy   TEWEN  =      2354.49035211
  -Hartree energ DENC   =     -3221.65557370
  -exchange      EXHF   =         0.00000000
  -V(xc)+E(xc)   XCENC  =       105.83296543
  PAW double counting   =      2825.78771744    -2832.59428145
  entropy T*S    EENTRO =        -0.00000000
  eigenvalues    EBANDS =      -467.09424959
  atomic energy  EATOM  =      1167.67322382
  Solvation  Ediel_sol  =         0.00000000
  ---------------------------------------------------
  free energy    TOTEN  =       -67.49890964 eV

  energy without entropy =      -67.49890964  energy(sigma->0) =      -67.49890964


--------------------------------------------------------------------------------------------------------




----------------------------------------- Iteration    1(   7)  ---------------------------------------


    POTLOK:  cpu time    8.0494: real time    8.0708
    SETDIJ:  cpu time    0.1145: real time    0.1148
     EDDAV:  cpu time    7.1063: real time    7.1329
       DOS:  cpu time    0.0007: real time    0.0007
    CHARGE:  cpu time    4.1881: real time    4.2007
    MIXING:  cpu time    0.2083: real time    0.2088
    --------------------------------------------
      LOOP:  cpu time   19.6689: real time   19.7325

 eigenvalue-minimisations  :    72
 total energy-change (2. order) : 0.1056582E+01  (-0.1058192E+01)
 number of electron      30.0000000 magnetization 
 augmentation part        1.8303880 magnetization 

 Broyden mixing:
  rms(total) = 0.65091E+00    rms(broyden)= 0.65091E+00
  rms(prec ) = 0.65719E+00
  weight for this iteration     100.00

 eigenvalues of (default mixing * dielectric matrix)
  average eigenvalue GAMMA=   1.8382
  1.1855  2.4910

 Free energy of the ion-electron system (eV)
  ---------------------------------------------------
  alpha Z        PSCENC =         0.06093630
  Ewald energy   TEWEN  =      2354.49035211
  -Hartree energ DENC   =     -3303.61960687
  -exchange      EXHF   =         0.00000000
  -V(xc)+E(xc)   XCENC  =       110.20473671
  PAW double counting   =     11761.02079354   -11770.00292878
  entropy T*S    EENTRO =        -0.00000000
  eigenvalues    EBANDS =      -386.26983443
  atomic energy  EATOM  =      1167.67322382
  Solvation  Ediel_sol  =         0.00000000
  ---------------------------------------------------
  free energy    TOTEN  =       -66.44232760 eV

  energy without entropy =      -66.44232760  energy(sigma->0) =      -66.44232760


--------------------------------------------------------------------------------------------------------




----------------------------------------- Iteration    1(   8)  ---------------------------------------


    POTLOK:  cpu time    8.0505: real time    8.0719
    SETDIJ:  cpu time    0.1140: real time    0.1143
     EDDAV:  cpu time    7.1503: real time    7.1761
       DOS:  cpu time    0.0008: real time    0.0008
    CHARGE:  cpu time    4.1954: real time    4.2082
    MIXING:  cpu time    0.2130: real time    0.2135
    --------------------------------------------
      LOOP:  cpu time   19.7254: real time   19.7889

 eigenvalue-minimisations  :    72
 total energy-change (2. order) : 0.4011111E+00  (-0.1364440E+00)
 number of electron      30.0000000 magnetization 
 augmentation part        1.8874923 magnetization 

 Broyden mixing:
  rms(total) = 0.21617E+00    rms(broyden)= 0.21617E+00
  rms(prec ) = 0.21754E+00
  weight for this iteration     100.00

 eigenvalues of (default mixing * dielectric matrix)
  average eigenvalue GAMMA=   1.6785
  2.5205  0.9092  1.6060

 Free energy of the ion-electron system (eV)
  ---------------------------------------------------
  alpha Z        PSCENC =         0.06093630
  Ewald energy   TEWEN  =      2354.49035211
  -Hartree energ DENC   =     -3281.68960022
  -exchange      EXHF   =         0.00000000
  -V(xc)+E(xc)   XCENC  =       108.95308639
  PAW double counting   =     10196.91303728   -10205.32706268
  entropy T*S    EENTRO =        -0.00000000
  eigenvalues    EBANDS =      -407.11518955
  atomic energy  EATOM  =      1167.67322382
  Solvation  Ediel_sol  =         0.00000000
  ---------------------------------------------------
  free energy    TOTEN  =       -66.04121654 eV

  energy without entropy =      -66.04121654  energy(sigma->0) =      -66.04121654


--------------------------------------------------------------------------------------------------------




----------------------------------------- Iteration    1(   9)  ---------------------------------------


    POTLOK:  cpu time    8.1588: real time    8.1805
    SETDIJ:  cpu time    0.1139: real time    0.1142
     EDDAV:  cpu time    7.7219: real time    7.7502
       DOS:  cpu time    0.0009: real time    0.0009
    CHARGE:  cpu time    4.1974: real time    4.2100
    MIXING:  cpu time    0.2239: real time    0.2245
    --------------------------------------------
      LOOP:  cpu time   20.4183: real time   20.4841

 eigenvalue-minimisations  :    80
 total energy-change (2. order) : 0.1228141E-01  (-0.1013569E-01)
 number of electron      30.0000000 magnetization 
 augmentation part        1.9012614 magnetization 

 Broyden mixing:
  rms(total) = 0.47341E-01    rms(broyden)= 0.47341E-01
  rms(prec ) = 0.49690E-01
  weight for this iteration     100.00

 eigenvalues of (default mixing * dielectric matrix)
  average eigenvalue GAMMA=   1.4794
  2.3842  1.6527  0.9403  0.9403

 Free energy of the ion-electron system (eV)
  ---------------------------------------------------
  alpha Z        PSCENC =         0.06093630
  Ewald energy   TEWEN  =      2354.49035211
  -Hartree energ DENC   =     -3280.94877059
  -exchange      EXHF   =         0.00000000
  -V(xc)+E(xc)   XCENC  =       108.84781902
  PAW double counting   =     10486.62414554   -10494.95791782
  entropy T*S    EENTRO =        -0.00000000
  eigenvalues    EBANDS =      -407.81872351
  atomic energy  EATOM  =      1167.67322382
  Solvation  Ediel_sol  =         0.00000000
  ---------------------------------------------------
  free energy    TOTEN  =       -66.02893513 eV

  energy without entropy =      -66.02893513  energy(sigma->0) =      -66.02893513


--------------------------------------------------------------------------------------------------------




----------------------------------------- Iteration    1(  10)  ---------------------------------------


    POTLOK:  cpu time    8.0578: real time    8.0792
    SETDIJ:  cpu time    0.1140: real time    0.1145
     EDDAV:  cpu time    5.9184: real time    5.9398
       DOS:  cpu time    0.0008: real time    0.0008
    CHARGE:  cpu time    4.1993: real time    4.2122
    MIXING:  cpu time    0.2306: real time    0.2312
    --------------------------------------------
      LOOP:  cpu time   18.5223: real time   18.5815

 eigenvalue-minimisations  :    56
 total energy-change (2. order) :-0.6537206E-03  (-0.2818559E-03)
 number of electron      30.0000000 magnetization 
 augmentation part        1.9009687 magnetization 

 Broyden mixing:
  rms(total) = 0.18567E-01    rms(broyden)= 0.18567E-01
  rms(prec ) = 0.22691E-01
  weight for this iteration     100.00

 eigenvalues of (default mixing * dielectric matrix)
  average eigenvalue GAMMA=   1.5625
  2.2581  2.2581  1.0052  1.1456  1.1456

 Free energy of the ion-electron system (eV)
  ---------------------------------------------------
  alpha Z        PSCENC =         0.06093630
  Ewald energy   TEWEN  =      2354.49035211
  -Hartree energ DENC   =     -3282.41062527
  -exchange      EXHF   =         0.00000000
  -V(xc)+E(xc)   XCENC  =       108.86180797
  PAW double counting   =     10364.61298134   -10372.92424414
  entropy T*S    EENTRO =        -0.00000000
  eigenvalues    EBANDS =      -406.39402099
  atomic energy  EATOM  =      1167.67322382
  Solvation  Ediel_sol  =         0.00000000
  ---------------------------------------------------
  free energy    TOTEN  =       -66.02958885 eV

  energy without entropy =      -66.02958885  energy(sigma->0) =      -66.02958885


--------------------------------------------------------------------------------------------------------




----------------------------------------- Iteration    1(  11)  ---------------------------------------


    POTLOK:  cpu time    8.0720: real time    8.0935
    SETDIJ:  cpu time    0.1137: real time    0.1140
     EDDAV:  cpu time    6.5087: real time    6.5321
       DOS:  cpu time    0.0005: real time    0.0005
    CHARGE:  cpu time    4.1948: real time    4.2076
    MIXING:  cpu time    0.2343: real time    0.2349
    --------------------------------------------
      LOOP:  cpu time   19.1255: real time   19.1866

 eigenvalue-minimisations  :    64
 total energy-change (2. order) :-0.2233320E-03  (-0.2852728E-03)
 number of electron      30.0000000 magnetization 
 augmentation part        1.9004485 magnetization 

 Broyden mixing:
  rms(total) = 0.10336E-01    rms(broyden)= 0.10336E-01
  rms(prec ) = 0.13607E-01
  weight for this iteration     100.00

 eigenvalues of (default mixing * dielectric matrix)
  average eigenvalue GAMMA=   1.6332
  2.6942  2.2917  1.7772  0.9258  1.0552  1.0552

 Free energy of the ion-electron system (eV)
  ---------------------------------------------------
  alpha Z        PSCENC =         0.06093630
  Ewald energy   TEWEN  =      2354.49035211
  -Hartree energ DENC   =     -3285.71198723
  -exchange      EXHF   =         0.00000000
  -V(xc)+E(xc)   XCENC  =       108.91959809
  PAW double counting   =     10361.42009384   -10369.71661364
  entropy T*S    EENTRO =        -0.00000000
  eigenvalues    EBANDS =      -403.16541547
  atomic energy  EATOM  =      1167.67322382
  Solvation  Ediel_sol  =         0.00000000
  ---------------------------------------------------
  free energy    TOTEN  =       -66.02981218 eV

  energy without entropy =      -66.02981218  energy(sigma->0) =      -66.02981218


--------------------------------------------------------------------------------------------------------




----------------------------------------- Iteration    1(  12)  ---------------------------------------


    POTLOK:  cpu time    8.0761: real time    8.0976
    SETDIJ:  cpu time    0.1162: real time    0.1165
     EDDAV:  cpu time    5.9516: real time    5.9727
       DOS:  cpu time    0.0005: real time    0.0005
    CHARGE:  cpu time    4.1965: real time    4.2092
    MIXING:  cpu time    0.2419: real time    0.2427
    --------------------------------------------
      LOOP:  cpu time   18.5843: real time   18.6430

 eigenvalue-minimisations  :    56
 total energy-change (2. order) :-0.3410488E-02  (-0.3970326E-03)
 number of electron      30.0000000 magnetization 
 augmentation part        1.8984508 magnetization 

 Broyden mixing:
  rms(total) = 0.95479E-02    rms(broyden)= 0.95479E-02
  rms(prec ) = 0.10886E-01
  weight for this iteration     100.00

 eigenvalues of (default mixing * dielectric matrix)
  average eigenvalue GAMMA=   1.6925
  3.5354  2.5334  1.7151  1.2698  1.0177  1.0177  0.7588

 Free energy of the ion-electron system (eV)
  ---------------------------------------------------
  alpha Z        PSCENC =         0.06093630
  Ewald energy   TEWEN  =      2354.49035211
  -Hartree energ DENC   =     -3289.10468496
  -exchange      EXHF   =         0.00000000
  -V(xc)+E(xc)   XCENC  =       108.98612888
  PAW double counting   =     10374.28874787   -10382.58751799
  entropy T*S    EENTRO =        -0.00000000
  eigenvalues    EBANDS =      -399.84040870
  atomic energy  EATOM  =      1167.67322382
  Solvation  Ediel_sol  =         0.00000000
  ---------------------------------------------------
  free energy    TOTEN  =       -66.03322267 eV

  energy without entropy =      -66.03322267  energy(sigma->0) =      -66.03322267


--------------------------------------------------------------------------------------------------------




----------------------------------------- Iteration    1(  13)  ---------------------------------------


    POTLOK:  cpu time    8.0758: real time    8.0972
    SETDIJ:  cpu time    0.1141: real time    0.1144
     EDDAV:  cpu time    7.1200: real time    7.1453
       DOS:  cpu time    0.0005: real time    0.0005
    CHARGE:  cpu time    4.1924: real time    4.2052
    MIXING:  cpu time    0.2509: real time    0.2517
    --------------------------------------------
      LOOP:  cpu time   19.7553: real time   19.8182

 eigenvalue-minimisations  :    72
 total energy-change (2. order) :-0.2970069E-02  (-0.5186662E-04)
 number of electron      30.0000000 magnetization 
 augmentation part        1.8988750 magnetization 

 Broyden mixing:
  rms(total) = 0.53329E-02    rms(broyden)= 0.53329E-02
  rms(prec ) = 0.64777E-02
  weight for this iteration     100.00

 eigenvalues of (default mixing * dielectric matrix)
  average eigenvalue GAMMA=   1.7088
  4.0303  2.5914  1.7072  1.4590  1.1604  0.9200  0.9013  0.9013

 Free energy of the ion-electron system (eV)
  ---------------------------------------------------
  alpha Z        PSCENC =         0.06093630
  Ewald energy   TEWEN  =      2354.49035211
  -Hartree energ DENC   =     -3290.28728842
  -exchange      EXHF   =         0.00000000
  -V(xc)+E(xc)   XCENC  =       108.99390881
  PAW double counting   =     10348.08122556   -10356.37413669
  entropy T*S    EENTRO =        -0.00000000
  eigenvalues    EBANDS =      -398.67441424
  atomic energy  EATOM  =      1167.67322382
  Solvation  Ediel_sol  =         0.00000000
  ---------------------------------------------------
  free energy    TOTEN  =       -66.03619274 eV

  energy without entropy =      -66.03619274  energy(sigma->0) =      -66.03619274


--------------------------------------------------------------------------------------------------------




----------------------------------------- Iteration    1(  14)  ---------------------------------------


    POTLOK:  cpu time    8.0789: real time    8.1004
    SETDIJ:  cpu time    0.1141: real time    0.1144
     EDDAV:  cpu time    7.7201: real time    7.7473
       DOS:  cpu time    0.0003: real time    0.0003
    CHARGE:  cpu time    4.1959: real time    4.2086
    MIXING:  cpu time    0.2538: real time    0.2544
    --------------------------------------------
      LOOP:  cpu time   20.3648: real time   20.4292

 eigenvalue-minimisations  :    80
 total energy-change (2. order) :-0.4570539E-02  (-0.4301603E-04)
 number of electron      30.0000000 magnetization 
 augmentation part        1.8989353 magnetization 

 Broyden mixing:
  rms(total) = 0.30515E-02    rms(broyden)= 0.30515E-02
  rms(prec ) = 0.38757E-02
  weight for this iteration     100.00

 eigenvalues of (default mixing * dielectric matrix)
  average eigenvalue GAMMA=   1.8954
  5.2923  2.4016  2.4016  1.5940  1.5940  1.0231  1.0231  0.9282  0.8008

 Free energy of the ion-electron system (eV)
  ---------------------------------------------------
  alpha Z        PSCENC =         0.06093630
  Ewald energy   TEWEN  =      2354.49035211
  -Hartree energ DENC   =     -3291.22391475
  -exchange      EXHF   =         0.00000000
  -V(xc)+E(xc)   XCENC  =       108.99705509
  PAW double counting   =     10335.39937041   -10343.69221075
  entropy T*S    EENTRO =        -0.00000000
  eigenvalues    EBANDS =      -397.74557551
  atomic energy  EATOM  =      1167.67322382
  Solvation  Ediel_sol  =         0.00000000
  ---------------------------------------------------
  free energy    TOTEN  =       -66.04076328 eV

  energy without entropy =      -66.04076328  energy(sigma->0) =      -66.04076328


--------------------------------------------------------------------------------------------------------




----------------------------------------- Iteration    1(  15)  ---------------------------------------


    POTLOK:  cpu time    8.0724: real time    8.0938
    SETDIJ:  cpu time    0.1129: real time    0.1131
     EDDAV:  cpu time    5.3481: real time    5.3664
       DOS:  cpu time    0.0003: real time    0.0003
    CHARGE:  cpu time    4.1950: real time    4.2078
    MIXING:  cpu time    0.2646: real time    0.2652
    --------------------------------------------
      LOOP:  cpu time   17.9947: real time   18.0506

 eigenvalue-minimisations  :    48
 total energy-change (2. order) :-0.4562188E-02  (-0.4311233E-04)
 number of electron      30.0000000 magnetization 
 augmentation part        1.8988004 magnetization 

 Broyden mixing:
  rms(total) = 0.17069E-02    rms(broyden)= 0.17069E-02
  rms(prec ) = 0.21743E-02
  weight for this iteration     100.00

 eigenvalues of (default mixing * dielectric matrix)
  average eigenvalue GAMMA=   1.9587
  5.5732  2.9765  2.4697  2.0091  1.4046  1.4046  0.9916  0.9916  0.9445  0.8212

 Free energy of the ion-electron system (eV)
  ---------------------------------------------------
  alpha Z        PSCENC =         0.06093630
  Ewald energy   TEWEN  =      2354.49035211
  -Hartree energ DENC   =     -3291.97865009
  -exchange      EXHF   =         0.00000000
  -V(xc)+E(xc)   XCENC  =       108.99874290
  PAW double counting   =     10339.02976398   -10347.32508823
  entropy T*S    EENTRO =        -0.00000000
  eigenvalues    EBANDS =      -396.99460624
  atomic energy  EATOM  =      1167.67322382
  Solvation  Ediel_sol  =         0.00000000
  ---------------------------------------------------
  free energy    TOTEN  =       -66.04532547 eV

  energy without entropy =      -66.04532547  energy(sigma->0) =      -66.04532547


--------------------------------------------------------------------------------------------------------




----------------------------------------- Iteration    1(  16)  ---------------------------------------


    POTLOK:  cpu time    8.0644: real time    8.0858
    SETDIJ:  cpu time    0.1154: real time    0.1157
     EDDAV:  cpu time    7.7391: real time    7.7671
       DOS:  cpu time    0.0004: real time    0.0004
    CHARGE:  cpu time    4.1841: real time    4.1968
    MIXING:  cpu time    0.2709: real time    0.2716
    --------------------------------------------
      LOOP:  cpu time   20.3758: real time   20.4414

 eigenvalue-minimisations  :    80
 total energy-change (2. order) :-0.3187434E-02  (-0.2856450E-04)
 number of electron      30.0000000 magnetization 
 augmentation part        1.8987048 magnetization 

 Broyden mixing:
  rms(total) = 0.11337E-02    rms(broyden)= 0.11337E-02
  rms(prec ) = 0.13766E-02
  weight for this iteration     100.00

 eigenvalues of (default mixing * dielectric matrix)
  average eigenvalue GAMMA=   2.0106
  6.5750  3.4836  2.3673  2.0006  1.5513  1.5513  1.0121  1.0121  0.9481  0.8853
  0.7302

 Free energy of the ion-electron system (eV)
  ---------------------------------------------------
  alpha Z        PSCENC =         0.06093630
  Ewald energy   TEWEN  =      2354.49035211
  -Hartree energ DENC   =     -3292.18778061
  -exchange      EXHF   =         0.00000000
  -V(xc)+E(xc)   XCENC  =       108.99383751
  PAW double counting   =     10337.28177588   -10345.57682213
  entropy T*S    EENTRO =        -0.00000000
  eigenvalues    EBANDS =      -396.78403577
  atomic energy  EATOM  =      1167.67322382
  Solvation  Ediel_sol  =         0.00000000
  ---------------------------------------------------
  free energy    TOTEN  =       -66.04851290 eV

  energy without entropy =      -66.04851290  energy(sigma->0) =      -66.04851290


--------------------------------------------------------------------------------------------------------




----------------------------------------- Iteration    1(  17)  ---------------------------------------


    POTLOK:  cpu time    8.0656: real time    8.0873
    SETDIJ:  cpu time    0.1148: real time    0.1150
     EDDAV:  cpu time    6.5460: real time    6.5700
       DOS:  cpu time    0.0004: real time    0.0004
    CHARGE:  cpu time    4.1955: real time    4.2083
    MIXING:  cpu time    0.2766: real time    0.2775
    --------------------------------------------
      LOOP:  cpu time   19.2003: real time   19.2627

 eigenvalue-minimisations  :    64
 total energy-change (2. order) :-0.1382034E-02  (-0.7093320E-05)
 number of electron      30.0000000 magnetization 
 augmentation part        1.8987349 magnetization 

 Broyden mixing:
  rms(total) = 0.83763E-03    rms(broyden)= 0.83763E-03
  rms(prec ) = 0.96673E-03
  weight for this iteration     100.00

 eigenvalues of (default mixing * dielectric matrix)
  average eigenvalue GAMMA=   2.1217
  7.5320  3.8767  2.3420  2.1007  2.1007  1.4926  1.3004  0.9910  0.9910  1.0091
  0.9556  0.7691

 Free energy of the ion-electron system (eV)
  ---------------------------------------------------
  alpha Z        PSCENC =         0.06093630
  Ewald energy   TEWEN  =      2354.49035211
  -Hartree energ DENC   =     -3292.32349098
  -exchange      EXHF   =         0.00000000
  -V(xc)+E(xc)   XCENC  =       108.99156631
  PAW double counting   =     10334.58482805   -10342.87921199
  entropy T*S    EENTRO =        -0.00000000
  eigenvalues    EBANDS =      -396.64809856
  atomic energy  EATOM  =      1167.67322382
  Solvation  Ediel_sol  =         0.00000000
  ---------------------------------------------------
  free energy    TOTEN  =       -66.04989493 eV

  energy without entropy =      -66.04989493  energy(sigma->0) =      -66.04989493


--------------------------------------------------------------------------------------------------------




----------------------------------------- Iteration    1(  18)  ---------------------------------------


    POTLOK:  cpu time    8.0681: real time    8.0896
    SETDIJ:  cpu time    0.1146: real time    0.1148
     EDDAV:  cpu time    5.9478: real time    5.9701
       DOS:  cpu time    0.0004: real time    0.0004
    CHARGE:  cpu time    4.1927: real time    4.2054
    MIXING:  cpu time    0.2857: real time    0.2864
    --------------------------------------------
      LOOP:  cpu time   18.6108: real time   18.6707

 eigenvalue-minimisations  :    56
 total energy-change (2. order) :-0.1075670E-02  (-0.5489605E-05)
 number of electron      30.0000000 magnetization 
 augmentation part        1.8987454 magnetization 

 Broyden mixing:
  rms(total) = 0.38082E-03    rms(broyden)= 0.38082E-03
  rms(prec ) = 0.45768E-03
  weight for this iteration     100.00

 eigenvalues of (default mixing * dielectric matrix)
  average eigenvalue GAMMA=   2.2202
  7.9732  4.9071  2.7071  2.3793  2.0002  1.5909  1.5909  1.0099  1.0099  1.0639
  0.9334  0.9334  0.7631

 Free energy of the ion-electron system (eV)
  ---------------------------------------------------
  alpha Z        PSCENC =         0.06093630
  Ewald energy   TEWEN  =      2354.49035211
  -Hartree energ DENC   =     -3292.38207303
  -exchange      EXHF   =         0.00000000
  -V(xc)+E(xc)   XCENC  =       108.98998049
  PAW double counting   =     10334.89669587   -10343.19077285
  entropy T*S    EENTRO =        -0.00000000
  eigenvalues    EBANDS =      -396.58931332
  atomic energy  EATOM  =      1167.67322382
  Solvation  Ediel_sol  =         0.00000000
  ---------------------------------------------------
  free energy    TOTEN  =       -66.05097060 eV

  energy without entropy =      -66.05097060  energy(sigma->0) =      -66.05097060


--------------------------------------------------------------------------------------------------------




----------------------------------------- Iteration    1(  19)  ---------------------------------------


    POTLOK:  cpu time    8.0644: real time    8.0858
    SETDIJ:  cpu time    0.1131: real time    0.1136
     EDDAV:  cpu time    7.7268: real time    7.7545
       DOS:  cpu time    0.0006: real time    0.0006
    CHARGE:  cpu time    4.1899: real time    4.2029
    MIXING:  cpu time    0.2975: real time    0.2982
    --------------------------------------------
      LOOP:  cpu time   20.3938: real time   20.4597

 eigenvalue-minimisations  :    80
 total energy-change (2. order) :-0.4959277E-03  (-0.2569356E-05)
 number of electron      30.0000000 magnetization 
 augmentation part        1.8986815 magnetization 

 Broyden mixing:
  rms(total) = 0.33456E-03    rms(broyden)= 0.33456E-03
  rms(prec ) = 0.36096E-03
  weight for this iteration     100.00

 eigenvalues of (default mixing * dielectric matrix)
  average eigenvalue GAMMA=   2.1572
  8.2728  4.9303  2.7462  2.5004  1.8107  1.8107  1.5501  1.1958  0.9948  0.9948
  0.9317  0.9317  0.7834  0.7476

 Free energy of the ion-electron system (eV)
  ---------------------------------------------------
  alpha Z        PSCENC =         0.06093630
  Ewald energy   TEWEN  =      2354.49035211
  -Hartree energ DENC   =     -3292.39480170
  -exchange      EXHF   =         0.00000000
  -V(xc)+E(xc)   XCENC  =       108.98937023
  PAW double counting   =     10335.55674523   -10343.85088493
  entropy T*S    EENTRO =        -0.00000000
  eigenvalues    EBANDS =      -396.57640759
  atomic energy  EATOM  =      1167.67322382
  Solvation  Ediel_sol  =         0.00000000
  ---------------------------------------------------
  free energy    TOTEN  =       -66.05146653 eV

  energy without entropy =      -66.05146653  energy(sigma->0) =      -66.05146653


--------------------------------------------------------------------------------------------------------




----------------------------------------- Iteration    1(  20)  ---------------------------------------


    POTLOK:  cpu time    8.0656: real time    8.0870
    SETDIJ:  cpu time    0.1141: real time    0.1144
     EDDAV:  cpu time    7.7294: real time    7.7575
       DOS:  cpu time    0.0003: real time    0.0003
    CHARGE:  cpu time    4.1919: real time    4.2048
    MIXING:  cpu time    0.3090: real time    0.3098
    --------------------------------------------
      LOOP:  cpu time   20.4117: real time   20.4776

 eigenvalue-minimisations  :    80
 total energy-change (2. order) :-0.1109933E-03  (-0.7449252E-07)
 number of electron      30.0000000 magnetization 
 augmentation part        1.8987085 magnetization 

 Broyden mixing:
  rms(total) = 0.21850E-03    rms(broyden)= 0.21850E-03
  rms(prec ) = 0.24139E-03
  weight for this iteration     100.00

 eigenvalues of (default mixing * dielectric matrix)
  average eigenvalue GAMMA=   2.2316
  8.3990  5.4830  3.2093  2.4609  2.2405  2.1161  1.5196  1.0260  1.0260  1.2083
  1.1619  0.9690  0.9690  0.9199  0.7651

 Free energy of the ion-electron system (eV)
  ---------------------------------------------------
  alpha Z        PSCENC =         0.06093630
  Ewald energy   TEWEN  =      2354.49035211
  -Hartree energ DENC   =     -3292.39511665
  -exchange      EXHF   =         0.00000000
  -V(xc)+E(xc)   XCENC  =       108.98893904
  PAW double counting   =     10335.42564474   -10343.71965104
  entropy T*S    EENTRO =        -0.00000000
  eigenvalues    EBANDS =      -396.57590585
  atomic energy  EATOM  =      1167.67322382
  Solvation  Ediel_sol  =         0.00000000
  ---------------------------------------------------
  free energy    TOTEN  =       -66.05157752 eV

  energy without entropy =      -66.05157752  energy(sigma->0) =      -66.05157752


--------------------------------------------------------------------------------------------------------




----------------------------------------- Iteration    1(  21)  ---------------------------------------


    POTLOK:  cpu time    8.0570: real time    8.0784
    SETDIJ:  cpu time    0.1134: real time    0.1139
     EDDAV:  cpu time    6.5498: real time    6.5730
       DOS:  cpu time    0.0001: real time    0.0001
    CHARGE:  cpu time    4.1939: real time    4.2069
    MIXING:  cpu time    0.3168: real time    0.3178
    --------------------------------------------
      LOOP:  cpu time   19.2325: real time   19.2940

 eigenvalue-minimisations  :    64
 total energy-change (2. order) :-0.1755713E-03  (-0.2816928E-06)
 number of electron      30.0000000 magnetization 
 augmentation part        1.8987108 magnetization 

 Broyden mixing:
  rms(total) = 0.11211E-03    rms(broyden)= 0.11211E-03
  rms(prec ) = 0.12124E-03
  weight for this iteration     100.00

 eigenvalues of (default mixing * dielectric matrix)
  average eigenvalue GAMMA=   2.2636
  8.8797  5.8983  3.8137  2.5093  2.3526  1.7281  1.7281  1.6925  1.1340  0.9405
  0.9405  0.9937  0.9937  0.7632  0.9250  0.9250

 Free energy of the ion-electron system (eV)
  ---------------------------------------------------
  alpha Z        PSCENC =         0.06093630
  Ewald energy   TEWEN  =      2354.49035211
  -Hartree energ DENC   =     -3292.40329929
  -exchange      EXHF   =         0.00000000
  -V(xc)+E(xc)   XCENC  =       108.98883673
  PAW double counting   =     10335.15800930   -10343.45216054
  entropy T*S    EENTRO =        -0.00000000
  eigenvalues    EBANDS =      -396.56765153
  atomic energy  EATOM  =      1167.67322382
  Solvation  Ediel_sol  =         0.00000000
  ---------------------------------------------------
  free energy    TOTEN  =       -66.05175310 eV

  energy without entropy =      -66.05175310  energy(sigma->0) =      -66.05175310


--------------------------------------------------------------------------------------------------------




----------------------------------------- Iteration    1(  22)  ---------------------------------------


    POTLOK:  cpu time    8.0589: real time    8.0804
    SETDIJ:  cpu time    0.1126: real time    0.1128
     EDDAV:  cpu time    7.1344: real time    7.1599
       DOS:  cpu time    0.0004: real time    0.0004
    CHARGE:  cpu time    4.1980: real time    4.2109
    MIXING:  cpu time    0.3254: real time    0.3264
    --------------------------------------------
      LOOP:  cpu time   19.8313: real time   19.8951

 eigenvalue-minimisations  :    72
 total energy-change (2. order) :-0.3844068E-04  (-0.2997299E-07)
 number of electron      30.0000000 magnetization 
 augmentation part        1.8987140 magnetization 

 Broyden mixing:
  rms(total) = 0.77240E-04    rms(broyden)= 0.77240E-04
  rms(prec ) = 0.83377E-04
  weight for this iteration     100.00

 eigenvalues of (default mixing * dielectric matrix)
  average eigenvalue GAMMA=   2.2518
  8.9888  6.0758  3.9400  2.4344  2.4344  2.0782  2.0782  1.4881  1.2514  1.0195
  1.0195  1.0234  1.0234  0.9081  0.9081  0.7611  0.8488

 Free energy of the ion-electron system (eV)
  ---------------------------------------------------
  alpha Z        PSCENC =         0.06093630
  Ewald energy   TEWEN  =      2354.49035211
  -Hartree energ DENC   =     -3292.40622214
  -exchange      EXHF   =         0.00000000
  -V(xc)+E(xc)   XCENC  =       108.98877665
  PAW double counting   =     10335.16381862   -10343.45794011
  entropy T*S    EENTRO =        -0.00000000
  eigenvalues    EBANDS =      -396.56473679
  atomic energy  EATOM  =      1167.67322382
  Solvation  Ediel_sol  =         0.00000000
  ---------------------------------------------------
  free energy    TOTEN  =       -66.05179154 eV

  energy without entropy =      -66.05179154  energy(sigma->0) =      -66.05179154


--------------------------------------------------------------------------------------------------------




----------------------------------------- Iteration    1(  23)  ---------------------------------------


    POTLOK:  cpu time    8.0428: real time    8.0642
    SETDIJ:  cpu time    0.1154: real time    0.1157
     EDDAV:  cpu time    4.7389: real time    4.7556
       DOS:  cpu time    0.0001: real time    0.0001
    CHARGE:  cpu time    4.2003: real time    4.2134
    MIXING:  cpu time    0.3338: real time    0.3346
    --------------------------------------------
      LOOP:  cpu time   17.4329: real time   17.4877

 eigenvalue-minimisations  :    40
 total energy-change (2. order) :-0.2854529E-04  (-0.8606673E-08)
 number of electron      30.0000000 magnetization 
 augmentation part        1.8987042 magnetization 

 Broyden mixing:
  rms(total) = 0.35435E-04    rms(broyden)= 0.35435E-04
  rms(prec ) = 0.39737E-04
  weight for this iteration     100.00

 eigenvalues of (default mixing * dielectric matrix)
  average eigenvalue GAMMA=   2.2667
  9.1142  6.3975  4.3779  3.0219  2.5085  2.0365  1.6935  1.6935  1.3829  1.3829
  1.0016  1.0016  0.9472  0.9472  0.9512  0.9178  0.7614  0.6630

 Free energy of the ion-electron system (eV)
  ---------------------------------------------------
  alpha Z        PSCENC =         0.06093630
  Ewald energy   TEWEN  =      2354.49035211
  -Hartree energ DENC   =     -3292.41063093
  -exchange      EXHF   =         0.00000000
  -V(xc)+E(xc)   XCENC  =       108.98881609
  PAW double counting   =     10335.23190293   -10343.52603213
  entropy T*S    EENTRO =        -0.00000000
  eigenvalues    EBANDS =      -396.56038828
  atomic energy  EATOM  =      1167.67322382
  Solvation  Ediel_sol  =         0.00000000
  ---------------------------------------------------
  free energy    TOTEN  =       -66.05182008 eV

  energy without entropy =      -66.05182008  energy(sigma->0) =      -66.05182008


--------------------------------------------------------------------------------------------------------




----------------------------------------- Iteration    1(  24)  ---------------------------------------


    POTLOK:  cpu time    8.0420: real time    8.0634
    SETDIJ:  cpu time    0.1157: real time    0.1160
     EDDAV:  cpu time    5.3436: real time    5.3630
       DOS:  cpu time    0.0004: real time    0.0004
    CHARGE:  cpu time    4.1940: real time    4.2066
    MIXING:  cpu time    0.3468: real time    0.3476
    --------------------------------------------
      LOOP:  cpu time   18.0440: real time   18.1009

 eigenvalue-minimisations  :    48
 total energy-change (2. order) :-0.1311107E-04  (-0.6400318E-08)
 number of electron      30.0000000 magnetization 
 augmentation part        1.8987035 magnetization 

 Broyden mixing:
  rms(total) = 0.30292E-04    rms(broyden)= 0.30292E-04
  rms(prec ) = 0.32358E-04
  weight for this iteration     100.00

 eigenvalues of (default mixing * dielectric matrix)
  average eigenvalue GAMMA=   2.2157
  9.2156  6.4934  4.5705  3.0371  2.4476  2.0710  1.7650  1.7650  1.4804  1.2645
  1.0028  1.0028  0.9517  0.9517  0.9479  0.9479  0.7408  0.7408  0.7012

 Free energy of the ion-electron system (eV)
  ---------------------------------------------------
  alpha Z        PSCENC =         0.06093630
  Ewald energy   TEWEN  =      2354.49035211
  -Hartree energ DENC   =     -3292.41244899
  -exchange      EXHF   =         0.00000000
  -V(xc)+E(xc)   XCENC  =       108.98881006
  PAW double counting   =     10335.28166821   -10343.57580663
  entropy T*S    EENTRO =        -0.00000000
  eigenvalues    EBANDS =      -396.55856808
  atomic energy  EATOM  =      1167.67322382
  Solvation  Ediel_sol  =         0.00000000
  ---------------------------------------------------
  free energy    TOTEN  =       -66.05183319 eV

  energy without entropy =      -66.05183319  energy(sigma->0) =      -66.05183319


--------------------------------------------------------------------------------------------------------




----------------------------------------- Iteration    1(  25)  ---------------------------------------


    POTLOK:  cpu time    8.0542: real time    8.0756
    SETDIJ:  cpu time    0.1155: real time    0.1158
     EDDAV:  cpu time    5.9406: real time    5.9623
       DOS:  cpu time    0.0004: real time    0.0004
    CHARGE:  cpu time    4.1897: real time    4.2025
    MIXING:  cpu time    0.3623: real time    0.3634
    --------------------------------------------
      LOOP:  cpu time   18.6642: real time   18.7237

 eigenvalue-minimisations  :    56
 total energy-change (2. order) :-0.4143132E-05  (-0.7707559E-09)
 number of electron      30.0000000 magnetization 
 augmentation part        1.8987031 magnetization 

 Broyden mixing:
  rms(total) = 0.20318E-04    rms(broyden)= 0.20318E-04
  rms(prec ) = 0.22190E-04
  weight for this iteration     100.00

 eigenvalues of (default mixing * dielectric matrix)
  average eigenvalue GAMMA=   2.2489
  9.2685  6.6943  4.8112  3.0908  2.6352  2.3012  2.3012  1.5914  1.5914  1.2965
  1.2965  1.0155  1.0155  1.0429  0.9931  0.9100  0.9100  0.7646  0.9001  0.5478

 Free energy of the ion-electron system (eV)
  ---------------------------------------------------
  alpha Z        PSCENC =         0.06093630
  Ewald energy   TEWEN  =      2354.49035211
  -Hartree energ DENC   =     -3292.41263940
  -exchange      EXHF   =         0.00000000
  -V(xc)+E(xc)   XCENC  =       108.98880457
  PAW double counting   =     10335.21356323   -10343.50769107
  entropy T*S    EENTRO =        -0.00000000
  eigenvalues    EBANDS =      -396.55838690
  atomic energy  EATOM  =      1167.67322382
  Solvation  Ediel_sol  =         0.00000000
  ---------------------------------------------------
  free energy    TOTEN  =       -66.05183734 eV

  energy without entropy =      -66.05183734  energy(sigma->0) =      -66.05183734


--------------------------------------------------------------------------------------------------------




----------------------------------------- Iteration    1(  26)  ---------------------------------------


    POTLOK:  cpu time    8.0452: real time    8.0666
    SETDIJ:  cpu time    0.1157: real time    0.1160
     EDDAV:  cpu time    5.3308: real time    5.3500
       DOS:  cpu time    0.0005: real time    0.0005
    CHARGE:  cpu time    4.1918: real time    4.2047
    MIXING:  cpu time    0.3699: real time    0.3708
    --------------------------------------------
      LOOP:  cpu time   18.0554: real time   18.1127

 eigenvalue-minimisations  :    48
 total energy-change (2. order) :-0.6579387E-05  (-0.1758949E-08)
 number of electron      30.0000000 magnetization 
 augmentation part        1.8987066 magnetization 

 Broyden mixing:
  rms(total) = 0.15345E-04    rms(broyden)= 0.15345E-04
  rms(prec ) = 0.16015E-04
  weight for this iteration     100.00

 eigenvalues of (default mixing * dielectric matrix)
  average eigenvalue GAMMA=   2.2547
  9.4150  6.9680  5.1549  3.6575  2.5494  2.5494  1.9392  1.9392  1.5947  1.2835
  1.2835  1.0257  1.0257  1.0771  0.9304  0.9304  0.9128  0.9128  0.8832  0.7634
  0.5524

 Free energy of the ion-electron system (eV)
  ---------------------------------------------------
  alpha Z        PSCENC =         0.06093630
  Ewald energy   TEWEN  =      2354.49035211
  -Hartree energ DENC   =     -3292.41210645
  -exchange      EXHF   =         0.00000000
  -V(xc)+E(xc)   XCENC  =       108.98878584
  PAW double counting   =     10335.21874195   -10343.51285804
  entropy T*S    EENTRO =        -0.00000000
  eigenvalues    EBANDS =      -396.55891944
  atomic energy  EATOM  =      1167.67322382
  Solvation  Ediel_sol  =         0.00000000
  ---------------------------------------------------
  free energy    TOTEN  =       -66.05184392 eV

  energy without entropy =      -66.05184392  energy(sigma->0) =      -66.05184392


--------------------------------------------------------------------------------------------------------




----------------------------------------- Iteration    1(  27)  ---------------------------------------


    POTLOK:  cpu time    8.0586: real time    8.0800
    SETDIJ:  cpu time    0.1148: real time    0.1150
     EDDAV:  cpu time    5.9453: real time    5.9664
       DOS:  cpu time    0.0008: real time    0.0008
    CHARGE:  cpu time    4.1883: real time    4.2011
    MIXING:  cpu time    0.3842: real time    0.3854
    --------------------------------------------
      LOOP:  cpu time   18.6935: real time   18.7524

 eigenvalue-minimisations  :    56
 total energy-change (2. order) :-0.1707478E-05  (-0.6534151E-09)
 number of electron      30.0000000 magnetization 
 augmentation part        1.8987058 magnetization 

 Broyden mixing:
  rms(total) = 0.12041E-04    rms(broyden)= 0.12041E-04
  rms(prec ) = 0.12446E-04
  weight for this iteration     100.00

 eigenvalues of (default mixing * dielectric matrix)
  average eigenvalue GAMMA=   2.2943
  9.5145  7.1384  5.4250  3.9103  2.9616  2.4598  2.4598  1.9954  1.5497  1.5497
  1.2286  1.2286  1.0127  1.0127  0.9957  0.9957  1.0241  0.7639  0.9021  0.9021
  0.9025  0.5413

 Free energy of the ion-electron system (eV)
  ---------------------------------------------------
  alpha Z        PSCENC =         0.06093630
  Ewald energy   TEWEN  =      2354.49035211
  -Hartree energ DENC   =     -3292.41223398
  -exchange      EXHF   =         0.00000000
  -V(xc)+E(xc)   XCENC  =       108.98878117
  PAW double counting   =     10335.20860050   -10343.50271883
  entropy T*S    EENTRO =        -0.00000000
  eigenvalues    EBANDS =      -396.55878672
  atomic energy  EATOM  =      1167.67322382
  Solvation  Ediel_sol  =         0.00000000
  ---------------------------------------------------
  free energy    TOTEN  =       -66.05184562 eV

  energy without entropy =      -66.05184562  energy(sigma->0) =      -66.05184562


--------------------------------------------------------------------------------------------------------




----------------------------------------- Iteration    1(  28)  ---------------------------------------


    POTLOK:  cpu time    8.0418: real time    8.0632
    SETDIJ:  cpu time    0.1152: real time    0.1155
     EDDAV:  cpu time    5.3631: real time    5.3818
       DOS:  cpu time    0.0004: real time    0.0004
    CHARGE:  cpu time    4.1899: real time    4.2027
    MIXING:  cpu time    0.3991: real time    0.4003
    --------------------------------------------
      LOOP:  cpu time   18.1112: real time   18.1678

 eigenvalue-minimisations  :    48
 total energy-change (2. order) :-0.1801671E-05  (-0.7501395E-09)
 number of electron      30.0000000 magnetization 
 augmentation part        1.8987062 magnetization 

 Broyden mixing:
  rms(total) = 0.11060E-04    rms(broyden)= 0.11060E-04
  rms(prec ) = 0.11184E-04
  weight for this iteration     100.00

 eigenvalues of (default mixing * dielectric matrix)
  average eigenvalue GAMMA=   2.2598
  9.5244  7.3496  5.5754  4.1185  2.9826  2.5377  2.3905  1.8027  1.8027  1.5973
  1.2886  1.2886  1.0025  1.0025  1.0421  0.9910  0.9910  0.9259  0.9259  0.8748
  0.7644  0.6593  0.5378

 Free energy of the ion-electron system (eV)
  ---------------------------------------------------
  alpha Z        PSCENC =         0.06093630
  Ewald energy   TEWEN  =      2354.49035211
  -Hartree energ DENC   =     -3292.41213527
  -exchange      EXHF   =         0.00000000
  -V(xc)+E(xc)   XCENC  =       108.98877891
  PAW double counting   =     10335.22086642   -10343.51499324
  entropy T*S    EENTRO =        -0.00000000
  eigenvalues    EBANDS =      -396.55887647
  atomic energy  EATOM  =      1167.67322382
  Solvation  Ediel_sol  =         0.00000000
  ---------------------------------------------------
  free energy    TOTEN  =       -66.05184742 eV

  energy without entropy =      -66.05184742  energy(sigma->0) =      -66.05184742


--------------------------------------------------------------------------------------------------------




----------------------------------------- Iteration    1(  29)  ---------------------------------------


    POTLOK:  cpu time    8.0376: real time    8.0590
    SETDIJ:  cpu time    0.1144: real time    0.1147
     EDDAV:  cpu time    5.3715: real time    5.3902
       DOS:  cpu time    0.0006: real time    0.0006
    CHARGE:  cpu time    4.1887: real time    4.2017
    MIXING:  cpu time    0.4129: real time    0.4139
    --------------------------------------------
      LOOP:  cpu time   18.1273: real time   18.1840

 eigenvalue-minimisations  :    48
 total energy-change (2. order) :-0.2955749E-06  (-0.3777725E-09)
 number of electron      30.0000000 magnetization 
 augmentation part        1.8987057 magnetization 

 Broyden mixing:
  rms(total) = 0.65282E-05    rms(broyden)= 0.65282E-05
  rms(prec ) = 0.66501E-05
  weight for this iteration     100.00

 eigenvalues of (default mixing * dielectric matrix)
  average eigenvalue GAMMA=   2.2500
  9.5435  7.4711  5.7261  4.2333  3.0211  2.4957  2.4629  2.0415  2.0415  1.5833
  1.2245  1.2245  1.0234  1.0234  1.0545  1.0545  0.9743  0.9743  0.9584  0.8877
  0.7641  0.8386  0.8386  0.5382

 Free energy of the ion-electron system (eV)
  ---------------------------------------------------
  alpha Z        PSCENC =         0.06093630
  Ewald energy   TEWEN  =      2354.49035211
  -Hartree energ DENC   =     -3292.41210174
  -exchange      EXHF   =         0.00000000
  -V(xc)+E(xc)   XCENC  =       108.98877717
  PAW double counting   =     10335.22194849   -10343.51607361
  entropy T*S    EENTRO =        -0.00000000
  eigenvalues    EBANDS =      -396.55891025
  atomic energy  EATOM  =      1167.67322382
  Solvation  Ediel_sol  =         0.00000000
  ---------------------------------------------------
  free energy    TOTEN  =       -66.05184772 eV

  energy without entropy =      -66.05184772  energy(sigma->0) =      -66.05184772


--------------------------------------------------------------------------------------------------------




----------------------------------------- Iteration    1(  30)  ---------------------------------------


    POTLOK:  cpu time    8.0191: real time    8.0404
    SETDIJ:  cpu time    0.1142: real time    0.1145
     EDDAV:  cpu time    4.1509: real time    4.1654
       DOS:  cpu time    0.0004: real time    0.0004
    CHARGE:  cpu time    4.1900: real time    4.2029
    MIXING:  cpu time    0.4248: real time    0.4258
    --------------------------------------------
      LOOP:  cpu time   16.9012: real time   16.9533

 eigenvalue-minimisations  :    32
 total energy-change (2. order) :-0.3860441E-06  (-0.3514842E-09)
 number of electron      30.0000000 magnetization 
 augmentation part        1.8987057 magnetization 

 Broyden mixing:
  rms(total) = 0.38721E-05    rms(broyden)= 0.38721E-05
  rms(prec ) = 0.39495E-05
  weight for this iteration     100.00

 eigenvalues of (default mixing * dielectric matrix)
  average eigenvalue GAMMA=   2.2786
  9.5843  7.7042  5.9734  4.5783  3.3410  2.6963  2.4740  2.2019  1.8647  1.8647
  1.4884  1.2566  1.2566  1.1956  1.0120  1.0120  0.9588  0.9588  0.9770  0.8848
  0.8848  0.8845  0.7637  0.6133  0.5339

 Free energy of the ion-electron system (eV)
  ---------------------------------------------------
  alpha Z        PSCENC =         0.06093630
  Ewald energy   TEWEN  =      2354.49035211
  -Hartree energ DENC   =     -3292.41213898
  -exchange      EXHF   =         0.00000000
  -V(xc)+E(xc)   XCENC  =       108.98877640
  PAW double counting   =     10335.23215412   -10343.52627760
  entropy T*S    EENTRO =        -0.00000000
  eigenvalues    EBANDS =      -396.55887428
  atomic energy  EATOM  =      1167.67322382
  Solvation  Ediel_sol  =         0.00000000
  ---------------------------------------------------
  free energy    TOTEN  =       -66.05184811 eV

  energy without entropy =      -66.05184811  energy(sigma->0) =      -66.05184811


--------------------------------------------------------------------------------------------------------




----------------------------------------- Iteration    1(  31)  ---------------------------------------


    POTLOK:  cpu time    8.0233: real time    8.0447
    SETDIJ:  cpu time    0.1130: real time    0.1133
     EDDAV:  cpu time    5.3615: real time    5.3815
       DOS:  cpu time    0.0005: real time    0.0005
    CHARGE:  cpu time    4.1980: real time    4.2108
    MIXING:  cpu time    0.4413: real time    0.4424
    --------------------------------------------
      LOOP:  cpu time   18.1392: real time   18.1975

 eigenvalue-minimisations  :    48
 total energy-change (2. order) :-0.2171273E-06  (-0.2598330E-09)
 number of electron      30.0000000 magnetization 
 augmentation part        1.8987057 magnetization 

 Broyden mixing:
  rms(total) = 0.24227E-05    rms(broyden)= 0.24227E-05
  rms(prec ) = 0.24649E-05
  weight for this iteration     100.00

 eigenvalues of (default mixing * dielectric matrix)
  average eigenvalue GAMMA=   2.2255
  9.5858  7.8363  6.0515  4.7074  3.4644  2.6982  2.4997  2.0421  2.0421  1.7739
  1.5032  1.2561  1.2561  1.1523  1.0139  1.0139  1.0237  0.9463  0.9463  0.8991
  0.8663  0.8663  0.7638  0.6766  0.5360  0.4422

 Free energy of the ion-electron system (eV)
  ---------------------------------------------------
  alpha Z        PSCENC =         0.06093630
  Ewald energy   TEWEN  =      2354.49035211
  -Hartree energ DENC   =     -3292.41213246
  -exchange      EXHF   =         0.00000000
  -V(xc)+E(xc)   XCENC  =       108.98877616
  PAW double counting   =     10335.23009768   -10343.52422034
  entropy T*S    EENTRO =        -0.00000000
  eigenvalues    EBANDS =      -396.55888160
  atomic energy  EATOM  =      1167.67322382
  Solvation  Ediel_sol  =         0.00000000
  ---------------------------------------------------
  free energy    TOTEN  =       -66.05184832 eV

  energy without entropy =      -66.05184832  energy(sigma->0) =      -66.05184832


--------------------------------------------------------------------------------------------------------




----------------------------------------- Iteration    1(  32)  ---------------------------------------


    POTLOK:  cpu time    8.0192: real time    8.0405
    SETDIJ:  cpu time    0.1152: real time    0.1155
     EDDAV:  cpu time    5.3641: real time    5.3843
       DOS:  cpu time    0.0007: real time    0.0007
    --------------------------------------------
      LOOP:  cpu time   13.5007: real time   13.5449

 eigenvalue-minimisations  :    48
 total energy-change (2. order) :-0.2570414E-07  (-0.2156959E-09)
 number of electron      30.0000000 magnetization 
 augmentation part        1.8987057 magnetization 

 Free energy of the ion-electron system (eV)
  ---------------------------------------------------
  alpha Z        PSCENC =         0.06093630
  Ewald energy   TEWEN  =      2354.49035211
  -Hartree energ DENC   =     -3292.41213065
  -exchange      EXHF   =         0.00000000
  -V(xc)+E(xc)   XCENC  =       108.98877658
  PAW double counting   =     10335.22859522   -10343.52271838
  entropy T*S    EENTRO =        -0.00000000
  eigenvalues    EBANDS =      -396.55888334
  atomic energy  EATOM  =      1167.67322382
  Solvation  Ediel_sol  =         0.00000000
  ---------------------------------------------------
  free energy    TOTEN  =       -66.05184835 eV

  energy without entropy =      -66.05184835  energy(sigma->0) =      -66.05184835


--------------------------------------------------------------------------------------------------------




 average (electrostatic) potential at core
  the test charge radii are     0.9051  0.8471  0.6256
  (the norm of the test charge is              1.0000)
       1 -85.7861       2 -85.7875       3 -84.8116       4 -84.8119       5 -84.8119
       6 -84.8116       7 -39.1438       8 -39.1501       9 -39.1501      10 -39.1438
 
 
 
 E-fermi :  -5.8041     XC(G=0):  -0.0462     alpha+bet : -0.0172


 k-point     1 :       0.0000    0.0000    0.0000
  band No.  band energies     occupation 
      1     -24.8085      2.00000
      2     -22.9022      2.00000
      3     -19.4963      2.00000
      4     -16.5348      2.00000
      5     -16.4394      2.00000
      6     -13.1224      2.00000
      7     -12.9145      2.00000
      8     -12.1059      2.00000
      9     -10.8145      2.00000
     10     -10.7727      2.00000
     11      -9.5279      2.00000
     12      -8.4614      2.00000
     13      -7.3625      2.00000
     14      -7.1566      2.00000
     15      -5.8600      2.00000
     16      -2.6862      0.00000
     17      -1.9002      0.00000
     18      -0.4932      0.00000
     19      -0.1327      0.00000
     20       0.0129      0.00000
     21       0.0990      0.00000
     22       0.1060      0.00000
     23       0.1212      0.00000
     24       0.1262      0.00000


--------------------------------------------------------------------------------------------------------


 soft charge-density along one line, spin component           1
         0         1         2         3         4         5         6         7         8         9
 total charge-density along one line
 
 pseudopotential strength for first ion, spin component:           1
 25.995  26.547  -0.087  -0.000   0.145  -0.106  -0.000   0.177
 26.547  27.111  -0.089  -0.000   0.148  -0.109  -0.000   0.181
 -0.087  -0.089  -5.427  -0.000   0.003  -6.086  -0.000   0.003
 -0.000  -0.000  -0.000  -5.631   0.000  -0.000  -6.328   0.000
  0.145   0.148   0.003   0.000  -5.430   0.003   0.000  -6.091
 -0.106  -0.109  -6.086  -0.000   0.003  -6.793  -0.000   0.005
 -0.000  -0.000  -0.000  -6.328   0.000  -0.000  -7.078   0.000
  0.177   0.181   0.003   0.000  -6.091   0.005   0.000  -6.799
 total augmentation occupancy for first ion, spin component:           1
 23.663 -25.566  -7.760   0.000  12.954   4.904   0.000  -8.200
-25.566  29.013   8.060   0.000 -13.458  -5.286   0.000   8.838
 -7.760   8.060  10.517   0.000  -2.595  -6.142   0.000   1.727
  0.000   0.000   0.000  27.136   0.000   0.000 -18.341   0.000
 12.954 -13.458  -2.595   0.000  13.313   1.727   0.000  -8.007
  4.904  -5.286  -6.142   0.000   1.727   3.673   0.000  -1.242
  0.000   0.000   0.000 -18.341   0.000   0.000  12.475   0.000
 -8.200   8.838   1.727   0.000  -8.007  -1.242   0.000   5.012


------------------------ aborting loop because EDIFF is reached ----------------------------------------


    CHARGE:  cpu time    4.2042: real time    4.2170
    FORLOC:  cpu time    0.8723: real time    0.8746
    FORNL :  cpu time    0.5062: real time    0.5075
    STRESS:  cpu time    2.7932: real time    2.8007
    FORHAR:  cpu time    2.6979: real time    2.7051
    MIXING:  cpu time    0.4576: real time    0.4588
    OFIELD:  cpu time    0.0000: real time    0.0000

  FORCE on cell =-STRESS in cart. coord.  units (eV):
  Direction    XX          YY          ZZ          XY          YZ          ZX
  --------------------------------------------------------------------------------------
  Alpha Z     0.06094     0.06094     0.06094
  Ewald     818.01299   187.44470  1349.03169  -599.12959     0.00000     0.00000
  Hartree  1145.45514   756.99887  1389.95804  -368.16587     0.00000     0.00000
  E(xc)    -113.73161  -115.18189  -112.19955    -1.38476    -0.00000    -0.00000
  Local   -2420.08880 -1410.43078 -3146.05454   958.35853    -0.00000     0.00000
  n-local    85.98369    88.81947    82.72559     2.69724    -0.00000     0.00000
  augment    52.81440    49.49178    48.62695    -3.17933     0.00000    -0.00000
  Kinetic   433.08469   443.38012   392.14638     9.83796     0.00000    -0.00000
  Fock        0.00000     0.00000     0.00000     0.00000     0.00000     0.00000
  -------------------------------------------------------------------------------------
  Total       1.59143     0.58321     4.29548    -0.96582     0.00000     0.00000
  in kB       0.05947     0.02179     0.16052    -0.03609     0.00000     0.00000
  external pressure =        0.08 kB  Pullay stress =        0.00 kB


 VOLUME and BASIS-vectors are now :
 -----------------------------------------------------------------------------
  energy-cutoff  :     1000.00
  volume of cell :    42875.00
      direct lattice vectors                 reciprocal lattice vectors
    35.000000000  0.000000000  0.000000000     0.028571429  0.000000000  0.000000000
     0.000000000 35.000000000  0.000000000     0.000000000  0.028571429  0.000000000
     0.000000000  0.000000000 35.000000000     0.000000000  0.000000000  0.028571429

  length of vectors
    35.000000000 35.000000000 35.000000000     0.028571429  0.028571429  0.028571429


 FORCES acting on ions
    electron-ion (+dipol)            ewald-force                    non-local-force                 convergence-correction
 -----------------------------------------------------------------------------------------------
   -.231E+03 0.138E+03 -.606E-09   0.273E+03 -.164E+03 0.200E-13   -.417E+02 0.252E+02 0.000E+00   -.355E-05 0.196E-05 0.112E-12
   0.230E+03 -.139E+03 0.296E-09   -.272E+03 0.165E+03 -.355E-14   0.417E+02 -.253E+02 0.000E+00   0.454E-05 -.240E-05 0.162E-12
   0.715E+02 -.432E+02 -.188E+03   -.696E+02 0.419E+02 0.193E+03   -.189E+01 0.119E+01 -.466E+01   0.492E-05 -.281E-05 -.466E-05
   -.716E+02 0.433E+02 -.188E+03   0.696E+02 -.421E+02 0.193E+03   0.191E+01 -.112E+01 -.470E+01   -.470E-05 0.287E-05 -.441E-05
   -.716E+02 0.433E+02 0.188E+03   0.696E+02 -.421E+02 -.193E+03   0.191E+01 -.112E+01 0.470E+01   -.470E-05 0.287E-05 0.441E-05
   0.715E+02 -.432E+02 0.188E+03   -.696E+02 0.419E+02 -.193E+03   -.189E+01 0.119E+01 0.466E+01   0.492E-05 -.281E-05 0.466E-05
   0.362E+02 -.218E+02 -.730E+02   -.390E+02 0.235E+02 0.785E+02   0.265E+01 -.160E+01 -.513E+01   0.783E-06 -.423E-06 -.531E-06
   -.358E+02 0.223E+02 -.730E+02   0.386E+02 -.240E+02 0.785E+02   -.262E+01 0.165E+01 -.514E+01   -.794E-06 0.466E-06 -.584E-06
   -.358E+02 0.223E+02 0.730E+02   0.386E+02 -.240E+02 -.785E+02   -.262E+01 0.165E+01 0.514E+01   -.794E-06 0.466E-06 0.584E-06
   0.362E+02 -.218E+02 0.730E+02   -.390E+02 0.235E+02 -.785E+02   0.265E+01 -.160E+01 0.513E+01   0.783E-06 -.423E-06 0.531E-06
 -----------------------------------------------------------------------------------------------
   -.104E+00 -.128E+00 0.692E-09   -.497E-13 0.213E-13 -.284E-13   0.104E+00 0.128E+00 0.000E+00   0.141E-05 -.229E-06 0.526E-12
 
 
 POSITION                                       TOTAL-FORCE (eV/Angst)
 -----------------------------------------------------------------------------------
      1.47018      0.99076      0.00000         0.389329     -0.268877     -0.000000
     34.04769      2.45288      0.00000        -0.386975      0.243903     -0.000000
     34.66200      2.08006      1.13004         0.059509     -0.037579      0.311425
      0.85402      1.35935      1.13063        -0.074790      0.040301      0.269870
      0.85402      1.35935     33.86937        -0.074790      0.040301     -0.269870
     34.66200      2.08006     33.86996         0.059509     -0.037579     -0.311425
     34.18962      2.36430      2.06186        -0.183724      0.107541      0.358573
      1.32086      1.06706      2.06240         0.197828     -0.097777      0.364725
      1.32086      1.06706     32.93760         0.197828     -0.097777     -0.364725
     34.18962      2.36430     32.93814        -0.183724      0.107541     -0.358573
 -----------------------------------------------------------------------------------
    total drift:                                0.000039      0.000005      0.000000


--------------------------------------------------------------------------------------------------------



  FREE ENERGIE OF THE ION-ELECTRON SYSTEM (eV)
  ---------------------------------------------------
  free  energy   TOTEN  =       -66.05184835 eV

  energy  without entropy=      -66.05184835  energy(sigma->0) =      -66.05184835
 


--------------------------------------------------------------------------------------------------------


    POTLOK:  cpu time    8.2757: real time    8.2979


--------------------------------------------------------------------------------------------------------


 writing wavefunctions
     LOOP+:  cpu time  855.6013: real time  858.2283
    4ORBIT:  cpu time    0.0000: real time    0.0000

 total amount of memory used by VASP on root node  1871889. kBytes
========================================================================

   base      :      30000. kBytes
   nonl-proj :      67727. kBytes
   fftplans  :     601440. kBytes
   grid      :    1154248. kBytes
   one-center:          3. kBytes
   wavefun   :      18471. kBytes
 
  
  
 General timing and accounting informations for this job:
 ========================================================
  
                  Total CPU time used (sec):     1224.861
                            User time (sec):     1102.747
                          System time (sec):      122.114
                         Elapsed time (sec):     1228.957
  
                   Maximum memory used (kb):     3124052.
                   Average memory used (kb):           0.
  
                          Minor page faults:       220866
                          Major page faults:            6
                 Voluntary context switches:        25308
 
 PROFILE, used timers:      14
 =============================
 
 index                 routine                    time                            calls level
----------------------------------------------------------------------------------------------
    1    total_time                         1228.958039                                1   1
    2      w1_copy                               1.487453                           2082   2
    3      fftwav_mpi                           80.813685                            810   2
    4      fftext_mpi                            0.418217                              6   2
    5      overl                                 0.000827                           1193   2
    6      orth1                                 1.977505                           1039   2
    7      lincom                                0.127493                             33   2
    8      eccp                                  3.013581                            192   2
    9      hamiltmu                            100.999015                            346   2
   10        vhamil                               16.873453                          692   3
   11        overl1                                0.000624                          692   3
   12        kinhamil                             61.532859                          692   3
   13          fftext_mpi                           61.092573                        692   4
   14      pdssyex_zheevx                        0.064145                             32   2
 
 Flat profile
 ============
 
             routine name                   CPU           calls
 ---------------------------------------------------------------
 total_time                           1040.056118           1
 fftwav_mpi                             80.813685         810
 fftext_mpi                             61.510790         698
 hamiltmu                               22.592079         346
 vhamil                                 16.873453         692
 eccp                                    3.013581         192
 orth1                                   1.977505        1039
 w1_copy                                 1.487453        2082
 kinhamil                                0.440286         692
 lincom                                  0.127493          33
 pdssyex_zheevx                          0.064145          32
 overl                                   0.000827        1193
 overl1                                  0.000624         692
 ---------------------------------------------------------------
  summed up times    1228.95803880692     
 
Profiling took   0.007358  0.004545  0.003252  0.003245 seconds
Profiling took   0.003373 seconds
