
 Primary working directories    : /scratch/sirous/116741/molpro.b2ijai22PV
 Secondary working directories  : /scratch/sirous/116741/molpro.b2ijai22PV
 Wavefunction directory         : /scratch/sirous/116741/
 Main file repository           : /scratch/sirous/116741/molpro.b2ijai22PV/

 id        : karlovklimes

 Nodes                      nprocs
 nc-06.cc.karlov.mff.cuni.cz    4

 Using customized tuning parameters: mindgm=1; mindgv=20; mindgc=4; mindgr=1; noblas=0; minvec=7
 default implementation of scratch files=sf  


 Variables initialized (934), CPU time= 0.00 sec
 ***,CH3C6H4CN+CF3CN+BF3
 memory,500,m
 gdirect
 gthresh,energy=1.d-8,twoint=1.d-19,oneint=1.d-19,zero=1.d-15,orbital=1.d-8,grid=1.d-8
 symmetry,nosym
 geomtyp=xyz
                                                                                 ! Geometry
 geometry={
 O1        0.000000000    0.627206000     0.000000000
 O2        0.000000000    2.227206000     0.000000000
 H1        0.029703868    2.781377461     -0.785012070
 H2        0.013651768    2.853273520     0.729441819
 H3        0.017607753    0.040464160     -0.761351599
 H4        -0.013377840    0.031633302     0.754550510
 }
 
 
 
 basis=avtz
 
 
 
                                                                                 ! Dimer Calculation
 {rks,pbe,accu=1.d-8;orbital,2101.2}
 eab_PBE=energy
 
 
                                                                                 !monomer A
 dummy,2,3,4;                                                                    ! NOW MONOMER B IS DUMMY
 {rks,pbe,accu=1.d-8;orbital,2201.2}
 ea_PBE=energy
                                                                                 !monomer B
 dummy,1,5,6;                                                                    !NOW MONOMER A IS DUMMY
 {rks,pbe,accu=1.d-8;orbital,2301.2}
 eb_PBE=energy
 
 E_AB_int=eab_PBE-ea_PBE-eb_PBE
 
 
 text,results in hartree
 show,E_AB_int
 
 Commands  initialized (763), CPU time= 0.02 sec, 617 directives.
 Default parameters read. Elapsed time= 0.25 sec

 Checking input...
 Passed
1


                                         ***  PROGRAM SYSTEM MOLPRO  ***
                                       Copyright, TTI GmbH Stuttgart, 2015
                                    Version 2019.2 linked Jun  8 2019 11:26:33


 **********************************************************************************************************************************
 LABEL *   CH3C6H4CN+CF3CN+BF3                                                           
  64 bit mpp version                                                                     DATE: 19-Nov-19          TIME: 17:45:45  
 **********************************************************************************************************************************

 SHA1:             8135a10abc80eafa5b3ae28ffc55be4890dc4c84
 **********************************************************************************************************************************

 THRESHOLDS:

 ZERO    =  1.00D-15  ONEINT  =  1.00D-19  TWOINT  =  1.00D-19  PREFAC  =  1.00D-14  XXXXXX  =  1.00D-09  EORDER  =  1.00D-04
 ENERGY  =  1.00D-08  ETEST   =  0.00D+00  EDENS   =  0.00D+00  THRDEDEF=  1.00D-06  GRADIENT=  1.00D-02  STEP    =  1.00D-03
 ORBITAL =  1.00D-08  CIVEC   =  1.00D-05  COEFF   =  1.00D-04  PRINTCI =  5.00D-02  PUNCHCI =  9.90D+01  OPTGRAD =  3.00D-04
 OPTENERG=  1.00D-06  OPTSTEP =  3.00D-04  THRGRAD =  1.00D-10  COMPRESS=  1.00D-11  VARMIN  =  1.00D-07  VARMAX  =  1.00D-03
 THRDOUB =  0.00D+00  THRDIV  =  1.00D-05  THRRED  =  1.00D-07  THRPSP  =  1.00D+00  THRDC   =  1.00D-10  THRCS   =  1.00D-10
 THRNRM  =  1.00D-08  THREQ   =  0.00D+00  THRDE   =  1.00D+00  THRREF  =  1.00D-05  SPARFAC =  1.00D+00  THRDLP  =  1.00D-07
 THRDIA  =  1.00D-10  THRDLS  =  1.00D-07  THRGPS  =  0.00D+00  THRKEX  =  0.00D+00  THRDIS  =  2.00D-01  THRVAR  =  1.00D-10
 THRLOC  =  1.00D-06  THRGAP  =  1.00D-06  THRLOCT = -1.00D+00  THRGAPT = -1.00D+00  THRORB  =  1.00D-06  THRMLTP =  0.00D+00
 THRCPQCI=  1.00D-10  KEXTA   =  0.00D+00  THRCOARS=  0.00D+00  SYMTOL  =  1.00D-06  GRADTOL =  1.00D-06  THROVL  =  1.00D-08
 THRORTH =  1.00D-08  GRID    =  1.00D-08  GRIDMAX =  1.00D-03  DTMAX   =  0.00D+00  THROCCDE=  1.00D-01  THROCCDE=  1.00D-01
 THRPRINT=  2.50D-01


 Variable memory set to  500000000 words,  buffer space 

 SETTING GEOMTYP        =    XYZ
 ZSYMEL=NOSYM

 SETTING BASIS          =    AVTZ


 Recomputing integrals since basis changed


 Using spherical harmonics

 Library entry O      S aug-cc-pVTZ          selected for orbital group  1
 Library entry O      P aug-cc-pVTZ          selected for orbital group  1
 Library entry O      D aug-cc-pVTZ          selected for orbital group  1
 Library entry O      F aug-cc-pVTZ          selected for orbital group  1
 Library entry H      S aug-cc-pVTZ          selected for orbital group  2
 Library entry H      P aug-cc-pVTZ          selected for orbital group  2
 Library entry H      D aug-cc-pVTZ          selected for orbital group  2


 PROGRAM * SEWARD (Integral evaluation for generally contracted gaussian basis sets)     Author: Roland Lindh, 1990

 Geometry written to block  1 of record 700


 Point group  C1  



 ATOMIC COORDINATES

 NR  ATOM    CHARGE       X              Y              Z

   1  O1      8.00    0.000000000    1.185247564    0.000000000
   2  O2      8.00    0.000000000    4.208809363    0.000000000
   3  H1      1.00    0.056132175    5.256041650   -1.483457817
   4  H2      1.00    0.025798103    5.391905511    1.378445262
   5  H3      1.00    0.033273831    0.076466180   -1.438746007
   6  H4      1.00   -0.025280454    0.059778277    1.425893811

 Bond lengths in Bohr (Angstrom)

 1-2  3.023561799  1-5  1.816726005  1-6  1.816726005  2-3  1.816726005  2-4  1.816726005
     ( 1.600000000)     ( 0.961370000)     ( 0.961370000)     ( 0.961370001)     ( 0.961370000)

 Bond angles

  1-2-3  125.20049048   1-2-4  130.63397370   2-1-5  127.61253191   2-1-6  128.27993340

  3-2-4  104.10699999   5-1-6  104.10700004

 NUCLEAR CHARGE:                   20
 NUMBER OF PRIMITIVE AOS:         242
 NUMBER OF SYMMETRY AOS:          216
 NUMBER OF CONTRACTIONS:          184   (  184A   )
 NUMBER OF CORE ORBITALS:           2   (    2A   )
 NUMBER OF VALENCE ORBITALS:       12   (   12A   )


 NUCLEAR REPULSION ENERGY   47.49906457


 Eigenvalues of metric

         1 0.369E-04 0.184E-03 0.205E-03 0.235E-03 0.241E-03 0.253E-03 0.112E-02 0.140E-02


 OPERATOR DM      FOR CENTER  0  COORDINATES:    0.000000    0.000000    0.000000


 **********************************************************************************************************************************
 DATASETS  * FILE   NREC   LENGTH (MB)   RECORD NAMES
              1      18       31.30       500      610      700      900      950      970     1000      129      960     1100   
                                          VAR    BASINP    GEOM    SYMINP    ZMAT    AOBASIS   BASIS     P2S    ABASIS      S 
                                         1400     1410     1200     1210     1080     1600     1650     1700   
                                           T        V       H0       H01     AOSYM     SMH    MOLCAS    OPER   

 PROGRAMS   *        TOTAL       INT
 CPU TIMES  *         0.52      0.33
 REAL TIME  *         1.60 SEC
 DISK USED  *        31.70 MB (local),      126.81 MB (total)
 GA USED    *         0.00 MB       (max)       0.00 MB       (current)
 **********************************************************************************************************************************

 Density functional group PBE=PBEX+PBEC
 Functional: PBEX(Automatically generated (new) PBEX)                          Gradient terms: 1
 Functional: PBEC(Automatically generated (new) PBEC)                          Gradient terms: 1
 Use libxcgrid:  F
 Use grid at  1800.2

 Functional: PBEX                      Factor:  1.0000
 Functional: PBEC                      Factor:  1.0000

 Generated new metagrid on record  1800.2 with target accuracy 1.0D-08 and 61404 points in CPU time    0.2
 Computed new grid on record 1800.1 in CPU time    0.2
  150340 words reserved for DFT integration

 PROGRAM * RKS-SCF (Restricted closed shell Kohn-Sham)     Authors: W. Meyer, H.-J. Werner, P.J. Knowles, 1993

 NUMBER OF ELECTRONS:      10+   10-    SPACE SYMMETRY=1    SPIN SYMMETRY: Singlet 
 CONVERGENCE THRESHOLDS:    1.00E-04 (Density)    1.00E-08 (Energy)
 INTEGRAL THRESHOLDS:       1.00E-11 (Initial)    1.00E-11 (Final)
 MAX. NUMBER OF ITERATIONS:       60
 INTERPOLATION TYPE:            DIIS
 INTERPOLATION STEPS:              2 (START)      1 (STEP)
 LEVEL SHIFTS:                  0.00 (CLOSED)  0.00 (OPEN) 



 Use fine grid record 1800.2 for energy threshold  1.0D-08
 Orbital guess generated from atomic densities. Full valence occupancy:   14

 Molecular orbital dump at record        2101.2

 Initial occupancy:  10

 Direct Fock-matrix evaluation.        Authors: Roland Lindh & Martin Schuetz (1993/96)

 Integral Threshold:                  0.1D-10
 Threshold for writing integrals:     0.1D-06
 Prescreening on density matrix:        ON 
 Calculation will be performed fully direct        

 ITERATION   DDIFF            GRAD            ENERGY        2-EL.EN.            DIPOLE MOMENTS         DIIS   CPU(IT)  CPU(TOT)
    1      0.000D+00      0.000D+00      -152.36885104    258.205258    0.04291   -0.00274   -0.06203    0      3.8      6.2     start
    2      0.000D+00      0.131D-01      -148.17660398    182.322437   -0.26391    0.02071    0.49309    1      2.8      8.9     diag
    3      0.576D-01      0.452D-01      -152.56512294    249.153484    0.03161   -0.00242   -0.04241    2      3.1     12.0     diag
    4      0.545D-01      0.336D-02      -152.58439094    243.363957    0.02670   -0.00114   -0.02513    3      3.3     15.3     diag
    5      0.879D-02      0.155D-02      -152.58779249    244.677334    0.02582   -0.00025   -0.02658    4      3.1     18.3     diag
    6      0.166D-02      0.281D-03      -152.58789071    244.885853    0.02658   -0.00228   -0.02860    5      3.1     21.4     diag
    7      0.163D-03      0.692D-04      -152.58789615    244.944146    0.02666    0.00064   -0.02803    6      3.1     24.4     diag
    8      0.746D-04      0.298D-04      -152.58789716    244.951261    0.02664   -0.00126   -0.02822    7      3.1     27.5     diag
    9      0.200D-04      0.370D-05      -152.58789718    244.954801    0.02665   -0.00119   -0.02848    8      3.0     30.5     diag
   10      0.391D-05      0.607D-06      -152.58789718    244.955224    0.02664   -0.00119   -0.02825    0      3.0     33.5     orth

 Final occupancy:  10

 !RKS STATE  1.1 Energy              -152.587897176723
 Nuclear energy                        47.49906457
 One-electron energy                 -304.01253157
 Two-electron energy                  122.47761176
 Density functional                   -18.55204193     PBEX=-17.88744665 PBEC= -0.66459528
 Virial quotient                       -0.99874174
 !RKS STATE  1.1 Dipole moment          0.02664367    -0.00119396    -0.02824524
 Dipole moment /Debye                   0.06771702    -0.00303456    -0.07178754

 Orbital energies:

         1.1          2.1          3.1          4.1          5.1          6.1          7.1          8.1          9.1         10.1
    -18.740341   -18.740311    -0.970421    -0.896817    -0.503287    -0.482757    -0.454434    -0.306113    -0.218816    -0.151730

        11.1         12.1
     -0.040382    -0.001807


 HOMO     10.1    -0.151730 =      -4.1288eV
 LUMO     11.1    -0.040382 =      -1.0989eV
 LUMO-HOMO         0.111347 =       3.0299eV


 **********************************************************************************************************************************
 DATASETS  * FILE   NREC   LENGTH (MB)   RECORD NAMES
              1      19       31.30       500      610      700      900      950      970     1000      129      960     1100   
                                          VAR    BASINP    GEOM    SYMINP    ZMAT    AOBASIS   BASIS     P2S    ABASIS      S 
                                         1400     1410     1200     1210     1080     1600     1650     1700     1800   
                                           T        V       H0       H01     AOSYM     SMH    MOLCAS    OPER     GRID   

              2       5        3.54       700     1000      520     1800     2101   
                                         GEOM     BASIS   MCVARS    GRID      RKS  

 PROGRAMS   *        TOTAL   RKS-SCF       INT
 CPU TIMES  *        34.29     33.77      0.33
 REAL TIME  *        36.80 SEC
 DISK USED  *        37.22 MB (local),      148.90 MB (total)
 SF USED    *         0.41 MB
 GA USED    *         2.03 MB       (max)       2.03 MB       (current)
 **********************************************************************************************************************************
 SETTING EAB_PBE        =      -152.58789718  AU                              

 Dummy atoms: O2  H1  H2


 Recomputing one-electron integrals since nuclear charges changed


 PROGRAM * SEWARD (Integral evaluation for generally contracted gaussian basis sets)     Author: Roland Lindh, 1990

 Geometry written to block  1 of record 700


 Point group  C1  



 ATOMIC COORDINATES

 NR  ATOM    CHARGE       X              Y              Z

   1  O1      8.00    0.000000000    1.185247564    0.000000000
   2  O2      0.00    0.000000000    4.208809363    0.000000000
   3  H1      0.00    0.056132175    5.256041650   -1.483457817
   4  H2      0.00    0.025798103    5.391905511    1.378445262
   5  H3      1.00    0.033273831    0.076466180   -1.438746007
   6  H4      1.00   -0.025280454    0.059778277    1.425893811

 Bond lengths in Bohr (Angstrom)

 1-2  3.023561799  1-5  1.816726005  1-6  1.816726005  2-3  1.816726005  2-4  1.816726005
     ( 1.600000000)     ( 0.961370000)     ( 0.961370000)     ( 0.961370001)     ( 0.961370000)

 Bond angles

  1-2-3  125.20049048   1-2-4  130.63397370   2-1-5  127.61253191   2-1-6  128.27993340

  3-2-4  104.10699999   5-1-6  104.10700004

 NUCLEAR CHARGE:                   10
 NUMBER OF PRIMITIVE AOS:         242
 NUMBER OF SYMMETRY AOS:          216
 NUMBER OF CONTRACTIONS:          184   (  184A   )
 NUMBER OF CORE ORBITALS:           1   (    1A   )
 NUMBER OF VALENCE ORBITALS:        6   (    6A   )

 MOLECULE CHANGED: INITIALIZING OCCUPATION AND DUMP RECORDS


 NUCLEAR REPULSION ENERGY    9.15605699


 Eigenvalues of metric

         1 0.369E-04 0.184E-03 0.205E-03 0.235E-03 0.241E-03 0.253E-03 0.112E-02 0.140E-02


 OPERATOR DM      FOR CENTER  0  COORDINATES:    0.000000    0.000000    0.000000


 **********************************************************************************************************************************
 DATASETS  * FILE   NREC   LENGTH (MB)   RECORD NAMES
              1      19       31.30       500      610      700      900      950      970     1000      129      960     1100   
                                          VAR    BASINP    GEOM    SYMINP    ZMAT    AOBASIS   BASIS     P2S    ABASIS      S 
                                         1400     1410     1200     1210     1080     1600     1650     1700     1800   
                                           T        V       H0       H01     AOSYM     SMH    MOLCAS    OPER     GRID   

              2       5        3.54       700     1000      520     1800     2101   
                                         GEOM     BASIS   MCVARS    GRID      RKS  

 PROGRAMS   *        TOTAL       INT   RKS-SCF       INT
 CPU TIMES  *        34.35      0.06     33.77      0.33
 REAL TIME  *        36.93 SEC
 DISK USED  *        37.22 MB (local),      148.90 MB (total)
 SF USED    *         0.41 MB
 GA USED    *         2.03 MB       (max)       2.03 MB       (current)
 **********************************************************************************************************************************

 Density functional group PBE=PBEX+PBEC
 Functional: PBEX(Automatically generated (new) PBEX)                          Gradient terms: 1
 Functional: PBEC(Automatically generated (new) PBEC)                          Gradient terms: 1
 Use libxcgrid:  F
 Use grid at  1800.2

 Functional: PBEX                      Factor:  1.0000
 Functional: PBEC                      Factor:  1.0000

 Generated new metagrid on record  1800.2 with target accuracy 1.0D-08 and 61404 points in CPU time    0.2
 Computed new grid on record 1800.1 in CPU time    0.2
  150340 words reserved for DFT integration

 PROGRAM * RKS-SCF (Restricted closed shell Kohn-Sham)     Authors: W. Meyer, H.-J. Werner, P.J. Knowles, 1993

 NUMBER OF ELECTRONS:       5+    5-    SPACE SYMMETRY=1    SPIN SYMMETRY: Singlet 
 CONVERGENCE THRESHOLDS:    1.00E-04 (Density)    1.00E-08 (Energy)
 INTEGRAL THRESHOLDS:       1.00E-11 (Initial)    1.00E-11 (Final)
 MAX. NUMBER OF ITERATIONS:       60
 INTERPOLATION TYPE:            DIIS
 INTERPOLATION STEPS:              2 (START)      1 (STEP)
 LEVEL SHIFTS:                  0.00 (CLOSED)  0.00 (OPEN) 



 Use fine grid record 1800.2 for energy threshold  1.0D-08
 Orbital guess generated from atomic densities. Full valence occupancy:    7

 Molecular orbital dump at record        2201.2

 Initial occupancy:   5

 Direct Fock-matrix evaluation.        Authors: Roland Lindh & Martin Schuetz (1993/96)

 Integral Threshold:                  0.1D-10
 Threshold for writing integrals:     0.1D-06
 Prescreening on density matrix:        ON 
 Calculation will be performed fully direct        

 ITERATION   DDIFF            GRAD            ENERGY        2-EL.EN.            DIPOLE MOMENTS         DIIS   CPU(IT)  CPU(TOT)
    1      0.000D+00      0.000D+00       -76.29641460     98.102844    0.00393   -1.09712   -0.00632    0      4.1      7.0     start
    2      0.000D+00      0.114D-01       -75.92472549     81.997907   -0.00171    0.41514    0.00224    1      3.1     10.1     diag
    3      0.162D-01      0.257D-01       -76.37992154     93.542261    0.00263   -0.73573   -0.00423    2      2.9     13.0     diag
    4      0.114D-01      0.647D-03       -76.38029436     93.159821    0.00253   -0.70815   -0.00408    3      3.2     16.2     diag
    5      0.364D-03      0.148D-03       -76.38030735     93.208263    0.00252   -0.70645   -0.00407    4      2.7     18.9     diag
    6      0.617D-04      0.345D-04       -76.38030818     93.219590    0.00253   -0.70873   -0.00408    5      2.7     21.6     diag
    7      0.167D-04      0.113D-05       -76.38030818     93.219835    0.00253   -0.70866   -0.00408    6      2.6     24.3     diag
    8      0.493D-06      0.949D-07       -76.38030818     93.219934    0.00253   -0.70868   -0.00408    0      2.6     26.8     orth

 Final occupancy:   5

 !RKS STATE  1.1 Energy               -76.380308182937
 Nuclear energy                         9.15605699
 One-electron energy                 -122.91368805
 Two-electron energy                   46.60996690
 Density functional                    -9.23264402     PBEX=-8.90807180 PBEC=-0.32457223
 Virial quotient                       -1.00544066
 !RKS STATE  1.1 Dipole moment          0.00253291    -0.70867766    -0.00408387
 Dipole moment /Debye                   0.00643760    -1.80116096    -0.01037947

 Orbital energies:

         1.1          2.1          3.1          4.1          5.1          6.1          7.1
    -18.760166    -0.931696    -0.483376    -0.343681    -0.266170    -0.034594     0.016783


 HOMO      5.1    -0.266170 =      -7.2428eV
 LUMO      6.1    -0.034594 =      -0.9414eV
 LUMO-HOMO         0.231575 =       6.3015eV


 **********************************************************************************************************************************
 DATASETS  * FILE   NREC   LENGTH (MB)   RECORD NAMES
              1      19       31.30       500      610      700      900      950      970     1000      129      960     1100   
                                          VAR    BASINP    GEOM    SYMINP    ZMAT    AOBASIS   BASIS     P2S    ABASIS      S 
                                         1400     1410     1200     1210     1080     1600     1650     1700     1800   
                                           T        V       H0       H01     AOSYM     SMH    MOLCAS    OPER     GRID   

              2       6        7.39       700     1000      520     1800     2101     2201   
                                         GEOM     BASIS   MCVARS    GRID      RKS      RKS  

 PROGRAMS   *        TOTAL   RKS-SCF       INT   RKS-SCF       INT
 CPU TIMES  *        61.43     27.08      0.06     33.77      0.33
 REAL TIME  *        64.38 SEC
 DISK USED  *        40.80 MB (local),      163.22 MB (total)
 SF USED    *         0.41 MB
 GA USED    *         2.03 MB       (max)       2.03 MB       (current)
 **********************************************************************************************************************************
 SETTING EA_PBE         =       -76.38030818  AU                              

 Dummy atoms: O1  H3  H4


 Recomputing one-electron integrals since nuclear charges changed


 PROGRAM * SEWARD (Integral evaluation for generally contracted gaussian basis sets)     Author: Roland Lindh, 1990

 Geometry written to block  1 of record 700


 Point group  C1  



 ATOMIC COORDINATES

 NR  ATOM    CHARGE       X              Y              Z

   1  O1      0.00    0.000000000    1.185247564    0.000000000
   2  O2      8.00    0.000000000    4.208809363    0.000000000
   3  H1      1.00    0.056132175    5.256041650   -1.483457817
   4  H2      1.00    0.025798103    5.391905511    1.378445262
   5  H3      0.00    0.033273831    0.076466180   -1.438746007
   6  H4      0.00   -0.025280454    0.059778277    1.425893811

 Bond lengths in Bohr (Angstrom)

 1-2  3.023561799  1-5  1.816726005  1-6  1.816726005  2-3  1.816726005  2-4  1.816726005
     ( 1.600000000)     ( 0.961370000)     ( 0.961370000)     ( 0.961370001)     ( 0.961370000)

 Bond angles

  1-2-3  125.20049048   1-2-4  130.63397370   2-1-5  127.61253191   2-1-6  128.27993340

  3-2-4  104.10699999   5-1-6  104.10700004

 NUCLEAR CHARGE:                   10
 NUMBER OF PRIMITIVE AOS:         242
 NUMBER OF SYMMETRY AOS:          216
 NUMBER OF CONTRACTIONS:          184   (  184A   )
 NUMBER OF CORE ORBITALS:           1   (    1A   )
 NUMBER OF VALENCE ORBITALS:        6   (    6A   )

 MOLECULE CHANGED: INITIALIZING OCCUPATION AND DUMP RECORDS


 NUCLEAR REPULSION ENERGY    9.15605698


 Eigenvalues of metric

         1 0.369E-04 0.184E-03 0.205E-03 0.235E-03 0.241E-03 0.253E-03 0.112E-02 0.140E-02


 OPERATOR DM      FOR CENTER  0  COORDINATES:    0.000000    0.000000    0.000000


 **********************************************************************************************************************************
 DATASETS  * FILE   NREC   LENGTH (MB)   RECORD NAMES
              1      19       31.30       500      610      700      900      950      970     1000      129      960     1100   
                                          VAR    BASINP    GEOM    SYMINP    ZMAT    AOBASIS   BASIS     P2S    ABASIS      S 
                                         1400     1410     1200     1210     1080     1600     1650     1700     1800   
                                           T        V       H0       H01     AOSYM     SMH    MOLCAS    OPER     GRID   

              2       6        7.39       700     1000      520     1800     2101     2201   
                                         GEOM     BASIS   MCVARS    GRID      RKS      RKS  

 PROGRAMS   *        TOTAL       INT   RKS-SCF       INT   RKS-SCF       INT
 CPU TIMES  *        61.48      0.04     27.08      0.06     33.77      0.33
 REAL TIME  *        64.51 SEC
 DISK USED  *        40.80 MB (local),      163.22 MB (total)
 SF USED    *         0.41 MB
 GA USED    *         2.03 MB       (max)       2.03 MB       (current)
 **********************************************************************************************************************************

 Density functional group PBE=PBEX+PBEC
 Functional: PBEX(Automatically generated (new) PBEX)                          Gradient terms: 1
 Functional: PBEC(Automatically generated (new) PBEC)                          Gradient terms: 1
 Use libxcgrid:  F
 Use grid at  1800.2

 Functional: PBEX                      Factor:  1.0000
 Functional: PBEC                      Factor:  1.0000

  150340 words reserved for DFT integration

 PROGRAM * RKS-SCF (Restricted closed shell Kohn-Sham)     Authors: W. Meyer, H.-J. Werner, P.J. Knowles, 1993

 NUMBER OF ELECTRONS:       5+    5-    SPACE SYMMETRY=1    SPIN SYMMETRY: Singlet 
 CONVERGENCE THRESHOLDS:    1.00E-04 (Density)    1.00E-08 (Energy)
 INTEGRAL THRESHOLDS:       1.00E-11 (Initial)    1.00E-11 (Final)
 MAX. NUMBER OF ITERATIONS:       60
 INTERPOLATION TYPE:            DIIS
 INTERPOLATION STEPS:              2 (START)      1 (STEP)
 LEVEL SHIFTS:                  0.00 (CLOSED)  0.00 (OPEN) 



 Use fine grid record 1800.2 for energy threshold  1.0D-08
 Orbital guess generated from atomic densities. Full valence occupancy:    7

 Molecular orbital dump at record        2301.2

 Initial occupancy:   5

 Direct Fock-matrix evaluation.        Authors: Roland Lindh & Martin Schuetz (1993/96)

 Integral Threshold:                  0.1D-10
 Threshold for writing integrals:     0.1D-06
 Prescreening on density matrix:        ON 
 Calculation will be performed fully direct        

 ITERATION   DDIFF            GRAD            ENERGY        2-EL.EN.            DIPOLE MOMENTS         DIIS   CPU(IT)  CPU(TOT)
    1      0.000D+00      0.000D+00       -76.29641438     98.102842    0.04017    1.09520   -0.05158    0      4.1      7.1     start
    2      0.000D+00      0.114D-01       -75.92471687     81.997751   -0.01581   -0.41449    0.01907    1      3.0     10.1     diag
    3      0.162D-01      0.257D-01       -76.37992114     93.542275    0.02693    0.73445   -0.03459    2      3.3     13.4     diag
    4      0.114D-01      0.647D-03       -76.38029398     93.159818    0.02590    0.70691   -0.03332    3      3.4     16.8     diag
    5      0.364D-03      0.148D-03       -76.38030698     93.208264    0.02584    0.70522   -0.03323    4      2.7     19.5     diag
    6      0.622D-04      0.345D-04       -76.38030781     93.219591    0.02593    0.70749   -0.03334    5      2.7     22.2     diag
    7      0.166D-04      0.113D-05       -76.38030781     93.219837    0.02592    0.70742   -0.03334    6      2.6     24.8     diag
    8      0.496D-06      0.950D-07       -76.38030781     93.219935    0.02593    0.70744   -0.03334    0      2.5     27.2     orth

 Final occupancy:   5

 !RKS STATE  1.1 Energy               -76.380307811490
 Nuclear energy                         9.15605698
 One-electron energy                 -122.91368859
 Two-electron energy                   46.60996767
 Density functional                    -9.23264387     PBEX=-8.90807167 PBEC=-0.32457220
 Virial quotient                       -1.00544072
 !RKS STATE  1.1 Dipole moment          0.02592501     0.70743694    -0.03333733
 Dipole moment /Debye                   0.06589049     1.79800757    -0.08472950

 Orbital energies:

         1.1          2.1          3.1          4.1          5.1          6.1          7.1
    -18.760165    -0.931696    -0.483375    -0.343681    -0.266170    -0.034595     0.016779


 HOMO      5.1    -0.266170 =      -7.2428eV
 LUMO      6.1    -0.034595 =      -0.9414eV
 LUMO-HOMO         0.231574 =       6.3015eV


 **********************************************************************************************************************************
 DATASETS  * FILE   NREC   LENGTH (MB)   RECORD NAMES
              1      19       31.30       500      610      700      900      950      970     1000      129      960     1100   
                                          VAR    BASINP    GEOM    SYMINP    ZMAT    AOBASIS   BASIS     P2S    ABASIS      S 
                                         1400     1410     1200     1210     1080     1600     1650     1700     1800   
                                           T        V       H0       H01     AOSYM     SMH    MOLCAS    OPER     GRID   

              2       7       11.25       700     1000      520     1800     2101     2201     2301   
                                         GEOM     BASIS   MCVARS    GRID      RKS      RKS      RKS  

 PROGRAMS   *        TOTAL   RKS-SCF       INT   RKS-SCF       INT   RKS-SCF       INT
 CPU TIMES  *        88.77     27.28      0.04     27.08      0.06     33.77      0.33
 REAL TIME  *        92.21 SEC
 DISK USED  *        44.66 MB (local),      178.63 MB (total)
 SF USED    *         0.41 MB
 GA USED    *         2.03 MB       (max)       2.03 MB       (current)
 **********************************************************************************************************************************
 SETTING EB_PBE         =       -76.38030781  AU                              
 SETTING E_AB_INT       =         0.17271882  AU                              

 *** results in hartree
 E_AB_INT         =         0.17271882 AU
 Molecular orbitals read from record     2301.2  Type=RKS/CANONICAL (state 1.1)
 Occupation numbers read from record     2301.2  Type=RKS/RHF (state 1.1)
 Orbital energies read from record       2301.2  Type=RKS/CANONICAL (state 1.1)
 Redundancy group numbers read from rec  2301.2  Type=RKS/RHF (state 1.1)

 RPBE/aug-cc-pVTZ energy=    -76.380307811490

         RKS-SCF         RKS-SCF         RKS-SCF
    -76.38030781    -76.38030818   -152.58789718
 **********************************************************************************************************************************
 Molpro calculation terminated
