
 Primary working directories    : /scratch/sirous/550443/molpro.IY0INtsFGi
 Secondary working directories  : /scratch/sirous/550443/molpro.IY0INtsFGi
 Wavefunction directory         : /scratch/sirous/550443/
 Main file repository           : /scratch/sirous/550443/molpro.IY0INtsFGi/

 id        : karlovklimes

 Nodes                      nprocs
 nc-19.cc.karlov.mff.cuni.cz   12

 Using customized tuning parameters: mindgm=1; mindgv=20; mindgc=4; mindgr=1; noblas=0; minvec=7
 default implementation of scratch files=sf  


 Variables initialized (934), CPU time= 0.01 sec
 ***,CH3C6H4CN+CF3CN+BF3
 memory,500,m
 gdirect
 gthresh,energy=1.d-8,twoint=1.d-19,oneint=1.d-19,zero=1.d-15,orbital=1.d-8,grid=1.d-8
 symmetry,nosym
 geomtyp=xyz
                                                                                 ! Geometry
 geometry={
 C1        -0.471925000    -0.471925000     -1.859111000
 C2        0.471925000    0.471925000     -1.859111000
 H1        -0.872422000    -0.872422000     -0.936125000
 H2        0.872422000    0.872422000     -0.936125000
 H3        -0.870464000    -0.870464000     -2.783308000
 H4        0.870464000    0.870464000     -2.783308000
 C3        -0.471925000    0.471925000     1.859111000
 C4        0.471925000    -0.471925000     1.859111000
 H5        -0.872422000    0.872422000     0.936125000
 H6        0.872422000    -0.872422000     0.936125000
 H7        -0.870464000    0.870464000     2.783308000
 H8        0.870464000    -0.870464000     2.783308000
 }
 
 
 
 basis=avqz
 
 
 
                                                                                 ! Dimer Calculation
 {rks,pbe,accu=1.d-8;orbital,2101.2}
 eab_PBE=energy
 
 
                                                                                 !monomer A
 dummy,7,8,9,10,11,12;                                                           ! NOW MONOMER B IS DUMMY
 {rks,pbe,accu=1.d-8;orbital,2201.2}
 ea_PBE=energy
                                                                                 !monomer B
 dummy,1,2,3,4,5,6;                                                              !NOW MONOMER A IS DUMMY
 {rks,pbe,accu=1.d-8;orbital,2301.2}
 eb_PBE=energy
 
 E_AB_int=eab_PBE-ea_PBE-eb_PBE
 
 
 text,results in hartree
 show,E_AB_int
 
 Commands  initialized (763), CPU time= 0.01 sec, 617 directives.
 Default parameters read. Elapsed time= 0.21 sec

 Checking input...
 Passed
1


                                         ***  PROGRAM SYSTEM MOLPRO  ***
                                       Copyright, TTI GmbH Stuttgart, 2015
                                    Version 2019.2 linked Jun  8 2019 11:26:33


 **********************************************************************************************************************************
 LABEL *   CH3C6H4CN+CF3CN+BF3                                                           
  64 bit mpp version                                                                     DATE: 21-Apr-20          TIME: 12:53:45  
 **********************************************************************************************************************************

 SHA1:             8135a10abc80eafa5b3ae28ffc55be4890dc4c84
 **********************************************************************************************************************************

 THRESHOLDS:

 ZERO    =  1.00D-15  ONEINT  =  1.00D-19  TWOINT  =  1.00D-19  PREFAC  =  1.00D-14  XXXXXX  =  1.00D-09  EORDER  =  1.00D-04
 ENERGY  =  1.00D-08  ETEST   =  0.00D+00  EDENS   =  0.00D+00  THRDEDEF=  1.00D-06  GRADIENT=  1.00D-02  STEP    =  1.00D-03
 ORBITAL =  1.00D-08  CIVEC   =  1.00D-05  COEFF   =  1.00D-04  PRINTCI =  5.00D-02  PUNCHCI =  9.90D+01  OPTGRAD =  3.00D-04
 OPTENERG=  1.00D-06  OPTSTEP =  3.00D-04  THRGRAD =  1.00D-10  COMPRESS=  1.00D-11  VARMIN  =  1.00D-07  VARMAX  =  1.00D-03
 THRDOUB =  0.00D+00  THRDIV  =  1.00D-05  THRRED  =  1.00D-07  THRPSP  =  1.00D+00  THRDC   =  1.00D-10  THRCS   =  1.00D-10
 THRNRM  =  1.00D-08  THREQ   =  0.00D+00  THRDE   =  1.00D+00  THRREF  =  1.00D-05  SPARFAC =  1.00D+00  THRDLP  =  1.00D-07
 THRDIA  =  1.00D-10  THRDLS  =  1.00D-07  THRGPS  =  0.00D+00  THRKEX  =  0.00D+00  THRDIS  =  2.00D-01  THRVAR  =  1.00D-10
 THRLOC  =  1.00D-06  THRGAP  =  1.00D-06  THRLOCT = -1.00D+00  THRGAPT = -1.00D+00  THRORB  =  1.00D-06  THRMLTP =  0.00D+00
 THRCPQCI=  1.00D-10  KEXTA   =  0.00D+00  THRCOARS=  0.00D+00  SYMTOL  =  1.00D-06  GRADTOL =  1.00D-06  THROVL  =  1.00D-08
 THRORTH =  1.00D-08  GRID    =  1.00D-08  GRIDMAX =  1.00D-03  DTMAX   =  0.00D+00  THROCCDE=  1.00D-01  THROCCDE=  1.00D-01
 THRPRINT=  2.50D-01


 Variable memory set to  500000000 words,  buffer space 

 SETTING GEOMTYP        =    XYZ
 ZSYMEL=NOSYM

 SETTING BASIS          =    AVQZ


 Recomputing integrals since basis changed


 Using spherical harmonics

 Library entry C      S aug-cc-pVQZ          selected for orbital group  1
 Library entry C      P aug-cc-pVQZ          selected for orbital group  1
 Library entry C      D aug-cc-pVQZ          selected for orbital group  1
 Library entry C      F aug-cc-pVQZ          selected for orbital group  1
 Library entry C      G aug-cc-pVQZ          selected for orbital group  1
 Library entry H      S aug-cc-pVQZ          selected for orbital group  2
 Library entry H      P aug-cc-pVQZ          selected for orbital group  2
 Library entry H      D aug-cc-pVQZ          selected for orbital group  2
 Library entry H      F aug-cc-pVQZ          selected for orbital group  2


 PROGRAM * SEWARD (Integral evaluation for generally contracted gaussian basis sets)     Author: Roland Lindh, 1990

 Geometry written to block  1 of record 700


 Point group  C1  



 ATOMIC COORDINATES

 NR  ATOM    CHARGE       X              Y              Z

   1  C1      6.00   -0.891809001   -0.891809001   -3.513210625
   2  C2      6.00    0.891809001    0.891809001   -3.513210625
   3  H1      1.00   -1.648638645   -1.648638645   -1.769019868
   4  H2      1.00    1.648638645    1.648638645   -1.769019868
   5  H3      1.00   -1.644938561   -1.644938561   -5.259689840
   6  H4      1.00    1.644938561    1.644938561   -5.259689840
   7  C3      6.00   -0.891809001    0.891809001    3.513210625
   8  C4      6.00    0.891809001   -0.891809001    3.513210625
   9  H5      1.00   -1.648638645    1.648638645    1.769019868
  10  H6      1.00    1.648638645   -1.648638645    1.769019868
  11  H7      1.00   -1.644938561    1.644938561    5.259689840
  12  H8      1.00    1.644938561   -1.644938561    5.259689840

 Bond lengths in Bohr (Angstrom)

 1-2  2.522416769  1-3  2.046407490  1-5  2.045628978  2-4  2.046407490  2-6  2.045628978
     ( 1.334805471)     ( 1.082912208)     ( 1.082500237)     ( 1.082912208)     ( 1.082500237)

  7- 8  2.522416769   7- 9  2.046407490   7-11  2.045628978   8-10  2.046407490   8-12  2.045628978
       ( 1.334805471)       ( 1.082912208)       ( 1.082500237)       ( 1.082912208)       ( 1.082500237)

 Bond angles

  1-2-4  121.53526615   1-2-6  121.37682388   2-1-3  121.53526615   2-1-5  121.37682388

  3- 1- 5  117.08790997   4- 2- 6  117.08790997   7- 8-10  121.53526615   7- 8-12  121.37682388

  8- 7- 9  121.53526615   8- 7-11  121.37682388   9- 7-11  117.08790997  10- 8-12  117.08790997

 NUCLEAR CHARGE:                   32
 NUMBER OF PRIMITIVE AOS:         928
 NUMBER OF SYMMETRY AOS:          756
 NUMBER OF CONTRACTIONS:          688   (  688A   )
 NUMBER OF CORE ORBITALS:           4   (    4A   )
 NUMBER OF VALENCE ORBITALS:       24   (   24A   )


 NUCLEAR REPULSION ENERGY  102.16530973


 Eigenvalues of metric

         1 0.219E-05 0.219E-05 0.483E-05 0.483E-05 0.526E-05 0.608E-05 0.608E-05 0.689E-05


 OPERATOR DM      FOR CENTER  0  COORDINATES:    0.000000    0.000000    0.000000


 **********************************************************************************************************************************
 DATASETS  * FILE   NREC   LENGTH (MB)   RECORD NAMES
              1      18       47.42       500      610      700      900      950      970     1000      129      960     1100   
                                          VAR    BASINP    GEOM    SYMINP    ZMAT    AOBASIS   BASIS     P2S    ABASIS      S 
                                         1400     1410     1200     1210     1080     1600     1650     1700   
                                           T        V       H0       H01     AOSYM     SMH    MOLCAS    OPER   

 PROGRAMS   *        TOTAL       INT
 CPU TIMES  *         1.01      0.84
 REAL TIME  *         2.37 SEC
 DISK USED  *        48.09 MB (local),      577.10 MB (total)
 GA USED    *         0.00 MB       (max)       0.00 MB       (current)
 **********************************************************************************************************************************

 Density functional group PBE=PBEX+PBEC
 Functional: PBEX(Automatically generated (new) PBEX)                          Gradient terms: 1
 Functional: PBEC(Automatically generated (new) PBEC)                          Gradient terms: 1
 Use libxcgrid:  F
 Use grid at  1800.2

 Functional: PBEX                      Factor:  1.0000
 Functional: PBEC                      Factor:  1.0000

 Generated new metagrid on record  1800.2 with target accuracy 1.0D-08 and 113056 points in CPU time    0.2
 Computed new grid on record 1800.1 in CPU time    0.3
  553740 words reserved for DFT integration

 PROGRAM * RKS-SCF (Restricted closed shell Kohn-Sham)     Authors: W. Meyer, H.-J. Werner, P.J. Knowles, 1993

 NUMBER OF ELECTRONS:      16+   16-    SPACE SYMMETRY=1    SPIN SYMMETRY: Singlet 
 CONVERGENCE THRESHOLDS:    1.00E-04 (Density)    1.00E-08 (Energy)
 INTEGRAL THRESHOLDS:       1.00E-12 (Initial)    1.00E-12 (Final)
 MAX. NUMBER OF ITERATIONS:       60
 INTERPOLATION TYPE:            DIIS
 INTERPOLATION STEPS:              2 (START)      1 (STEP)
 LEVEL SHIFTS:                  0.00 (CLOSED)  0.00 (OPEN) 



 Use fine grid record 1800.2 for energy threshold  1.0D-08
 Orbital guess generated from atomic densities. Full valence occupancy:   28

 Molecular orbital dump at record        2101.2

 Initial occupancy:  16

 Direct Fock-matrix evaluation.        Authors: Roland Lindh & Martin Schuetz (1993/96)

 Integral Threshold:                  0.1D-11
 Threshold for writing integrals:     0.1D-06
 Prescreening on density matrix:        ON 
 Calculation will be performed fully direct        

 ITERATION   DDIFF            GRAD            ENERGY        2-EL.EN.            DIPOLE MOMENTS         DIIS   CPU(IT)  CPU(TOT)
    1      0.000D+00      0.000D+00      -156.75358224    366.743619    0.00000    0.00000   -0.00000    0    125.9    133.8     start
    2      0.000D+00      0.474D-02      -156.42461035    333.378218   -0.00000    0.00000   -0.00000    1    121.3    255.0     diag
    3      0.788D-02      0.690D-02      -157.01166166    354.125158    0.00000   -0.00000   -0.00000    2    117.6    372.6     diag
    4      0.488D-02      0.282D-03      -157.01264082    353.363519   -0.00000    0.00000   -0.00000    3    113.2    485.8     diag
    5      0.447D-03      0.770D-04      -157.01270785    353.389834    0.00000   -0.00000   -0.00000    4    109.9    595.7     diag
    6      0.563D-04      0.178D-04      -157.01271162    353.393241   -0.00000    0.00000   -0.00000    5    105.6    701.3     diag
    7      0.150D-04      0.383D-05      -157.01271179    353.398360    0.00000   -0.00000   -0.00000    6    101.8    803.1     diag
    8      0.294D-05      0.369D-06      -157.01271179    353.397878   -0.00000    0.00000   -0.00000    7     90.6    893.7     diag
    9      0.292D-06      0.254D-07      -157.01271179    353.397755    0.00000   -0.00000   -0.00000    0     81.9    975.6     orth

 Final occupancy:  16

 !RKS STATE  1.1 Energy              -157.012711786893
 Nuclear energy                       102.16530973
 One-electron energy                 -411.51337222
 Two-electron energy                  176.69887760
 Density functional                   -24.36352690     PBEX=-23.37284717 PBEC= -0.99067973
 Virial quotient                       -1.00493959
 !RKS STATE  1.1 Dipole moment          0.00000000    -0.00000000    -0.00000000
 Dipole moment /Debye                   0.00000001    -0.00000000    -0.00000000

 Orbital energies:

         1.1          2.1          3.1          4.1          5.1          6.1          7.1          8.1          9.1         10.1
     -9.885219    -9.885219    -9.884533    -9.884533    -0.694597    -0.689999    -0.525191    -0.525191    -0.433993    -0.414638

        11.1         12.1         13.1         14.1         15.1         16.1         17.1         18.1
     -0.375710    -0.373332    -0.316142    -0.316142    -0.249418    -0.249418    -0.046928    -0.036639


 HOMO     16.1    -0.249418 =      -6.7870eV
 LUMO     17.1    -0.046928 =      -1.2770eV
 LUMO-HOMO         0.202490 =       5.5100eV


 **********************************************************************************************************************************
 DATASETS  * FILE   NREC   LENGTH (MB)   RECORD NAMES
              1      19       47.42       500      610      700      900      950      970     1000      129      960     1100   
                                          VAR    BASINP    GEOM    SYMINP    ZMAT    AOBASIS   BASIS     P2S    ABASIS      S 
                                         1400     1410     1200     1210     1080     1600     1650     1700     1800   
                                           T        V       H0       H01     AOSYM     SMH    MOLCAS    OPER     GRID   

              2       5       12.54       700     1000      520     1800     2101   
                                         GEOM     BASIS   MCVARS    GRID      RKS  

 PROGRAMS   *        TOTAL   RKS-SCF       INT
 CPU TIMES  *       977.90    976.73      0.84
 REAL TIME  *       986.11 SEC
 DISK USED  *        90.45 MB (local),        1.09 GB (total)
 SF USED    *         5.69 MB
 GA USED    *         3.69 MB       (max)       3.68 MB       (current)
 **********************************************************************************************************************************
 SETTING EAB_PBE        =      -157.01271179  AU                              

 Dummy atoms: C3  C4  H5  H6  H7  H8


 Recomputing one-electron integrals since nuclear charges changed


 PROGRAM * SEWARD (Integral evaluation for generally contracted gaussian basis sets)     Author: Roland Lindh, 1990

 Geometry written to block  1 of record 700


 Point group  C1  



 ATOMIC COORDINATES

 NR  ATOM    CHARGE       X              Y              Z

   1  C1      6.00   -0.891809001   -0.891809001   -3.513210625
   2  C2      6.00    0.891809001    0.891809001   -3.513210625
   3  H1      1.00   -1.648638645   -1.648638645   -1.769019868
   4  H2      1.00    1.648638645    1.648638645   -1.769019868
   5  H3      1.00   -1.644938561   -1.644938561   -5.259689840
   6  H4      1.00    1.644938561    1.644938561   -5.259689840
   7  C3      0.00   -0.891809001    0.891809001    3.513210625
   8  C4      0.00    0.891809001   -0.891809001    3.513210625
   9  H5      0.00   -1.648638645    1.648638645    1.769019868
  10  H6      0.00    1.648638645   -1.648638645    1.769019868
  11  H7      0.00   -1.644938561    1.644938561    5.259689840
  12  H8      0.00    1.644938561   -1.644938561    5.259689840

 Bond lengths in Bohr (Angstrom)

 1-2  2.522416769  1-3  2.046407490  1-5  2.045628978  2-4  2.046407490  2-6  2.045628978
     ( 1.334805471)     ( 1.082912208)     ( 1.082500237)     ( 1.082912208)     ( 1.082500237)

  7- 8  2.522416769   7- 9  2.046407490   7-11  2.045628978   8-10  2.046407490   8-12  2.045628978
       ( 1.334805471)       ( 1.082912208)       ( 1.082500237)       ( 1.082912208)       ( 1.082500237)

 Bond angles

  1-2-4  121.53526615   1-2-6  121.37682388   2-1-3  121.53526615   2-1-5  121.37682388

  3- 1- 5  117.08790997   4- 2- 6  117.08790997   7- 8-10  121.53526615   7- 8-12  121.37682388

  8- 7- 9  121.53526615   8- 7-11  121.37682388   9- 7-11  117.08790997  10- 8-12  117.08790997

 NUCLEAR CHARGE:                   16
 NUMBER OF PRIMITIVE AOS:         928
 NUMBER OF SYMMETRY AOS:          756
 NUMBER OF CONTRACTIONS:          688   (  688A   )
 NUMBER OF CORE ORBITALS:           2   (    2A   )
 NUMBER OF VALENCE ORBITALS:       12   (   12A   )

 MOLECULE CHANGED: INITIALIZING OCCUPATION AND DUMP RECORDS


 NUCLEAR REPULSION ENERGY   33.36026973


 Eigenvalues of metric

         1 0.219E-05 0.219E-05 0.483E-05 0.483E-05 0.526E-05 0.608E-05 0.608E-05 0.689E-05


 OPERATOR DM      FOR CENTER  0  COORDINATES:    0.000000    0.000000    0.000000


 **********************************************************************************************************************************
 DATASETS  * FILE   NREC   LENGTH (MB)   RECORD NAMES
              1      19       47.42       500      610      700      900      950      970     1000      129      960     1100   
                                          VAR    BASINP    GEOM    SYMINP    ZMAT    AOBASIS   BASIS     P2S    ABASIS      S 
                                         1400     1410     1200     1210     1080     1600     1650     1700     1800   
                                           T        V       H0       H01     AOSYM     SMH    MOLCAS    OPER     GRID   

              2       5       12.54       700     1000      520     1800     2101   
                                         GEOM     BASIS   MCVARS    GRID      RKS  

 PROGRAMS   *        TOTAL       INT   RKS-SCF       INT
 CPU TIMES  *       979.27      1.13    976.73      0.84
 REAL TIME  *       987.62 SEC
 DISK USED  *        90.45 MB (local),        1.09 GB (total)
 SF USED    *         5.69 MB
 GA USED    *         3.69 MB       (max)       3.68 MB       (current)
 **********************************************************************************************************************************

 Density functional group PBE=PBEX+PBEC
 Functional: PBEX(Automatically generated (new) PBEX)                          Gradient terms: 1
 Functional: PBEC(Automatically generated (new) PBEC)                          Gradient terms: 1
 Use libxcgrid:  F
 Use grid at  1800.2

 Functional: PBEX                      Factor:  1.0000
 Functional: PBEC                      Factor:  1.0000

 Generated new metagrid on record  1800.2 with target accuracy 1.0D-08 and 113056 points in CPU time    0.4
 Computed new grid on record 1800.1 in CPU time    0.6
  553740 words reserved for DFT integration

 PROGRAM * RKS-SCF (Restricted closed shell Kohn-Sham)     Authors: W. Meyer, H.-J. Werner, P.J. Knowles, 1993

 NUMBER OF ELECTRONS:       8+    8-    SPACE SYMMETRY=1    SPIN SYMMETRY: Singlet 
 CONVERGENCE THRESHOLDS:    1.00E-04 (Density)    1.00E-08 (Energy)
 INTEGRAL THRESHOLDS:       1.00E-12 (Initial)    1.00E-12 (Final)
 MAX. NUMBER OF ITERATIONS:       60
 INTERPOLATION TYPE:            DIIS
 INTERPOLATION STEPS:              2 (START)      1 (STEP)
 LEVEL SHIFTS:                  0.00 (CLOSED)  0.00 (OPEN) 



 Use fine grid record 1800.2 for energy threshold  1.0D-08
 Orbital guess generated from atomic densities. Full valence occupancy:   14

 Molecular orbital dump at record        2201.2

 Initial occupancy:   8

 Direct Fock-matrix evaluation.        Authors: Roland Lindh & Martin Schuetz (1993/96)

 Integral Threshold:                  0.1D-11
 Threshold for writing integrals:     0.1D-06
 Prescreening on density matrix:        ON 
 Calculation will be performed fully direct        

 ITERATION   DDIFF            GRAD            ENERGY        2-EL.EN.            DIPOLE MOMENTS         DIIS   CPU(IT)  CPU(TOT)
    1      0.000D+00      0.000D+00       -78.37357942    147.995061    0.00000    0.00000    0.00004    0    122.5    132.3     start
    2      0.000D+00      0.475D-02       -78.19693521    131.186336   -0.00000   -0.00000   -0.00051    1    115.5    247.9     diag
    3      0.559D-02      0.702D-02       -78.50560378    141.636252    0.00000    0.00000   -0.00026    2    113.3    361.2     diag
    4      0.344D-02      0.270D-03       -78.50608370    141.277331   -0.00000   -0.00000   -0.00014    3    113.5    474.7     diag
    5      0.300D-03      0.462D-04       -78.50609445    141.279375    0.00000    0.00000   -0.00022    4    103.3    578.0     diag
    6      0.253D-04      0.781D-05       -78.50609477    141.286881   -0.00000   -0.00000   -0.00019    5     96.7    674.7     diag
    7      0.491D-05      0.546D-06       -78.50609478    141.286740    0.00000    0.00000   -0.00020    6     83.6    758.3     diag
    8      0.420D-06      0.613D-07       -78.50609478    141.286567   -0.00000   -0.00000   -0.00019    0     77.4    835.8     orth

 Final occupancy:   8

 !RKS STATE  1.1 Energy               -78.506094775830
 Nuclear energy                        33.36026973
 One-electron energy                 -170.33067590
 Two-electron energy                   70.64328330
 Density functional                   -12.17897190     PBEX=-11.68481842 PBEC= -0.49415348
 Virial quotient                       -1.00500944
 !RKS STATE  1.1 Dipole moment         -0.00000000    -0.00000000    -0.00019153
 Dipole moment /Debye                  -0.00000000    -0.00000000    -0.00048678

 Orbital energies:

         1.1          2.1          3.1          4.1          5.1          6.1          7.1          8.1          9.1         10.1
     -9.884409    -9.883723    -0.690878    -0.524221    -0.422926    -0.373896    -0.314593    -0.248262    -0.040483    -0.010864


 HOMO      8.1    -0.248262 =      -6.7555eV
 LUMO      9.1    -0.040483 =      -1.1016eV
 LUMO-HOMO         0.207778 =       5.6539eV


 **********************************************************************************************************************************
 DATASETS  * FILE   NREC   LENGTH (MB)   RECORD NAMES
              1      19       47.42       500      610      700      900      950      970     1000      129      960     1100   
                                          VAR    BASINP    GEOM    SYMINP    ZMAT    AOBASIS   BASIS     P2S    ABASIS      S 
                                         1400     1410     1200     1210     1080     1600     1650     1700     1800   
                                           T        V       H0       H01     AOSYM     SMH    MOLCAS    OPER     GRID   

              2       6       34.00       700     1000      520     1800     2101     2201   
                                         GEOM     BASIS   MCVARS    GRID      RKS      RKS  

 PROGRAMS   *        TOTAL   RKS-SCF       INT   RKS-SCF       INT
 CPU TIMES  *      1816.65    837.35      1.13    976.73      0.84
 REAL TIME  *      1828.70 SEC
 DISK USED  *       110.01 MB (local),        1.32 GB (total)
 SF USED    *         5.69 MB
 GA USED    *         3.69 MB       (max)       3.68 MB       (current)
 **********************************************************************************************************************************
 SETTING EA_PBE         =       -78.50609478  AU                              

 Dummy atoms: C1  C2  H1  H2  H3  H4


 Recomputing one-electron integrals since nuclear charges changed


 PROGRAM * SEWARD (Integral evaluation for generally contracted gaussian basis sets)     Author: Roland Lindh, 1990

 Geometry written to block  1 of record 700


 Point group  C1  



 ATOMIC COORDINATES

 NR  ATOM    CHARGE       X              Y              Z

   1  C1      0.00   -0.891809001   -0.891809001   -3.513210625
   2  C2      0.00    0.891809001    0.891809001   -3.513210625
   3  H1      0.00   -1.648638645   -1.648638645   -1.769019868
   4  H2      0.00    1.648638645    1.648638645   -1.769019868
   5  H3      0.00   -1.644938561   -1.644938561   -5.259689840
   6  H4      0.00    1.644938561    1.644938561   -5.259689840
   7  C3      6.00   -0.891809001    0.891809001    3.513210625
   8  C4      6.00    0.891809001   -0.891809001    3.513210625
   9  H5      1.00   -1.648638645    1.648638645    1.769019868
  10  H6      1.00    1.648638645   -1.648638645    1.769019868
  11  H7      1.00   -1.644938561    1.644938561    5.259689840
  12  H8      1.00    1.644938561   -1.644938561    5.259689840

 Bond lengths in Bohr (Angstrom)

 1-2  2.522416769  1-3  2.046407490  1-5  2.045628978  2-4  2.046407490  2-6  2.045628978
     ( 1.334805471)     ( 1.082912208)     ( 1.082500237)     ( 1.082912208)     ( 1.082500237)

  7- 8  2.522416769   7- 9  2.046407490   7-11  2.045628978   8-10  2.046407490   8-12  2.045628978
       ( 1.334805471)       ( 1.082912208)       ( 1.082500237)       ( 1.082912208)       ( 1.082500237)

 Bond angles

  1-2-4  121.53526615   1-2-6  121.37682388   2-1-3  121.53526615   2-1-5  121.37682388

  3- 1- 5  117.08790997   4- 2- 6  117.08790997   7- 8-10  121.53526615   7- 8-12  121.37682388

  8- 7- 9  121.53526615   8- 7-11  121.37682388   9- 7-11  117.08790997  10- 8-12  117.08790997

 NUCLEAR CHARGE:                   16
 NUMBER OF PRIMITIVE AOS:         928
 NUMBER OF SYMMETRY AOS:          756
 NUMBER OF CONTRACTIONS:          688   (  688A   )
 NUMBER OF CORE ORBITALS:           2   (    2A   )
 NUMBER OF VALENCE ORBITALS:       12   (   12A   )

 MOLECULE CHANGED: INITIALIZING OCCUPATION AND DUMP RECORDS


 NUCLEAR REPULSION ENERGY   33.36026973


 Eigenvalues of metric

         1 0.219E-05 0.219E-05 0.483E-05 0.483E-05 0.526E-05 0.608E-05 0.608E-05 0.689E-05


 OPERATOR DM      FOR CENTER  0  COORDINATES:    0.000000    0.000000    0.000000


 **********************************************************************************************************************************
 DATASETS  * FILE   NREC   LENGTH (MB)   RECORD NAMES
              1      19       47.42       500      610      700      900      950      970     1000      129      960     1100   
                                          VAR    BASINP    GEOM    SYMINP    ZMAT    AOBASIS   BASIS     P2S    ABASIS      S 
                                         1400     1410     1200     1210     1080     1600     1650     1700     1800   
                                           T        V       H0       H01     AOSYM     SMH    MOLCAS    OPER     GRID   

              2       6       34.00       700     1000      520     1800     2101     2201   
                                         GEOM     BASIS   MCVARS    GRID      RKS      RKS  

 PROGRAMS   *        TOTAL       INT   RKS-SCF       INT   RKS-SCF       INT
 CPU TIMES  *      1817.50      0.70    837.35      1.13    976.73      0.84
 REAL TIME  *      1829.67 SEC
 DISK USED  *       110.01 MB (local),        1.32 GB (total)
 SF USED    *         5.69 MB
 GA USED    *         3.69 MB       (max)       3.68 MB       (current)
 **********************************************************************************************************************************

 Density functional group PBE=PBEX+PBEC
 Functional: PBEX(Automatically generated (new) PBEX)                          Gradient terms: 1
 Functional: PBEC(Automatically generated (new) PBEC)                          Gradient terms: 1
 Use libxcgrid:  F
 Use grid at  1800.2

 Functional: PBEX                      Factor:  1.0000
 Functional: PBEC                      Factor:  1.0000

  553740 words reserved for DFT integration

 PROGRAM * RKS-SCF (Restricted closed shell Kohn-Sham)     Authors: W. Meyer, H.-J. Werner, P.J. Knowles, 1993

 NUMBER OF ELECTRONS:       8+    8-    SPACE SYMMETRY=1    SPIN SYMMETRY: Singlet 
 CONVERGENCE THRESHOLDS:    1.00E-04 (Density)    1.00E-08 (Energy)
 INTEGRAL THRESHOLDS:       1.00E-12 (Initial)    1.00E-12 (Final)
 MAX. NUMBER OF ITERATIONS:       60
 INTERPOLATION TYPE:            DIIS
 INTERPOLATION STEPS:              2 (START)      1 (STEP)
 LEVEL SHIFTS:                  0.00 (CLOSED)  0.00 (OPEN) 



 Use fine grid record 1800.2 for energy threshold  1.0D-08
 Orbital guess generated from atomic densities. Full valence occupancy:   14

 Molecular orbital dump at record        2301.2

 Initial occupancy:   8

 Direct Fock-matrix evaluation.        Authors: Roland Lindh & Martin Schuetz (1993/96)

 Integral Threshold:                  0.1D-11
 Threshold for writing integrals:     0.1D-06
 Prescreening on density matrix:        ON 
 Calculation will be performed fully direct        

 ITERATION   DDIFF            GRAD            ENERGY        2-EL.EN.            DIPOLE MOMENTS         DIIS   CPU(IT)  CPU(TOT)
    1      0.000D+00      0.000D+00       -78.37357942    147.995061   -0.00000    0.00000   -0.00004    0    123.8    133.1     start
    2      0.000D+00      0.475D-02       -78.19693521    131.186336   -0.00000    0.00000    0.00051    1    118.9    252.0     diag
    3      0.559D-02      0.702D-02       -78.50560378    141.636252    0.00000   -0.00000    0.00026    2    115.3    367.3     diag
    4      0.344D-02      0.270D-03       -78.50608370    141.277331   -0.00000    0.00000    0.00014    3    111.6    478.8     diag
    5      0.300D-03      0.462D-04       -78.50609445    141.279375    0.00000   -0.00000    0.00022    4    103.8    582.7     diag
    6      0.253D-04      0.781D-05       -78.50609477    141.286881   -0.00000    0.00000    0.00019    5     96.5    679.2     diag
    7      0.491D-05      0.546D-06       -78.50609478    141.286740    0.00000   -0.00000    0.00020    6     83.9    763.0     diag
    8      0.420D-06      0.613D-07       -78.50609478    141.286567   -0.00000    0.00000    0.00019    0     77.9    840.9     orth

 Final occupancy:   8

 !RKS STATE  1.1 Energy               -78.506094775834
 Nuclear energy                        33.36026973
 One-electron energy                 -170.33067590
 Two-electron energy                   70.64328330
 Density functional                   -12.17897190     PBEX=-11.68481842 PBEC= -0.49415348
 Virial quotient                       -1.00500944
 !RKS STATE  1.1 Dipole moment         -0.00000000     0.00000000     0.00019153
 Dipole moment /Debye                  -0.00000000     0.00000000     0.00048678

 Orbital energies:

         1.1          2.1          3.1          4.1          5.1          6.1          7.1          8.1          9.1         10.1
     -9.884409    -9.883723    -0.690878    -0.524221    -0.422926    -0.373896    -0.314593    -0.248262    -0.040483    -0.010864


 HOMO      8.1    -0.248262 =      -6.7555eV
 LUMO      9.1    -0.040483 =      -1.1016eV
 LUMO-HOMO         0.207778 =       5.6539eV


 **********************************************************************************************************************************
 DATASETS  * FILE   NREC   LENGTH (MB)   RECORD NAMES
              1      19       47.42       500      610      700      900      950      970     1000      129      960     1100   
                                          VAR    BASINP    GEOM    SYMINP    ZMAT    AOBASIS   BASIS     P2S    ABASIS      S 
                                         1400     1410     1200     1210     1080     1600     1650     1700     1800   
                                           T        V       H0       H01     AOSYM     SMH    MOLCAS    OPER     GRID   

              2       7       55.46       700     1000      520     1800     2101     2201     2301   
                                         GEOM     BASIS   MCVARS    GRID      RKS      RKS      RKS  

 PROGRAMS   *        TOTAL   RKS-SCF       INT   RKS-SCF       INT   RKS-SCF       INT
 CPU TIMES  *      2659.71    841.99      0.70    837.35      1.13    976.73      0.84
 REAL TIME  *      2675.61 SEC
 DISK USED  *       131.47 MB (local),        1.58 GB (total)
 SF USED    *         5.69 MB
 GA USED    *         3.69 MB       (max)       3.68 MB       (current)
 **********************************************************************************************************************************
 SETTING EB_PBE         =       -78.50609478  AU                              
 SETTING E_AB_INT       =        -0.00052224  AU                              

 *** results in hartree
 E_AB_INT         =        -0.00052224 AU
 Molecular orbitals read from record     2301.2  Type=RKS/CANONICAL (state 1.1)
 Occupation numbers read from record     2301.2  Type=RKS/RHF (state 1.1)
 Orbital energies read from record       2301.2  Type=RKS/CANONICAL (state 1.1)
 Redundancy group numbers read from rec  2301.2  Type=RKS/RHF (state 1.1)

 RPBE/aug-cc-pVQZ energy=    -78.506094775834

         RKS-SCF         RKS-SCF         RKS-SCF
    -78.50609478    -78.50609478   -157.01271179
 **********************************************************************************************************************************
 Molpro calculation terminated
