
 Working directory              : /scratch/yourdkhs/302895/molpro.CAr1nGy5L8/
 Global scratch directory       : /scratch/yourdkhs/302895/molpro.CAr1nGy5L8/
 Wavefunction directory         : /scratch/yourdkhs/302895/
 Main file repository           : /scratch/yourdkhs/302895/molpro.CAr1nGy5L8/

 id        : karlovklimes

 Nodes                      nprocs
 nd-21.cc.karlov.mff.cuni.cz    8
 GA implementation: MPI file
 GA implementation (serial work in mppx): MPI file

 Using customized tuning parameters: mindgm=1; mindgv=20; mindgc=4; mindgr=1; noblas=0; minvec=7
 default implementation of scratch files=sf  


 Variables initialized (1015), CPU time= 0.00 sec
 ***,CH3C6H4CN+CF3CN+BF3
 memory,500,m
 gdirect
 gthresh,energy=1.d-8,twoint=1.d-19,oneint=1.d-19,zero=1.d-15,orbital=1.d-8,grid=1.d-8
 symmetry,nosym
 geomtyp=xyz
                                                                                 ! Geometry
 geometry={
 C1        0.000000000    0.056986000     0.000000000
 O1        0.000000000    1.227206000     0.000000000
 O2        0.000000000    5.227206000     0.000000000
 C2        0.000000000    6.397426000     0.000000000
 O3        0.000000000    7.567646000     0.000000000
 O4        0.000000000    -1.113234000     0.000000000
 }
 
 
 
 basis=avtz
 
 
 
                                                                                 ! Dimer Calculation
 {rks,pbe,accu=1.d-8;orbital,2101.2}
 eab_PBE=energy
 
 
                                                                                 !monomer A
 dummy,3,4,5;                                                                    ! NOW MONOMER B IS DUMMY
 {rks,pbe,accu=1.d-8;orbital,2201.2}
 ea_PBE=energy
                                                                                 !monomer B
 dummy,1,2,6;                                                                    !NOW MONOMER A IS DUMMY
 {rks,pbe,accu=1.d-8;orbital,2301.2}
 eb_PBE=energy
 
 E_AB_int=eab_PBE-ea_PBE-eb_PBE
 
 
 text,results in hartree
 show,E_AB_int
 
 Commands initialized (834), CPU time= 0.01 sec, 672 directives.
 Default parameters read. Elapsed time= 0.23 sec

 Checking input...
 Passed
1


                                         ***  PROGRAM SYSTEM MOLPRO  ***
                                       Copyright, TTI GmbH Stuttgart, 2015
                                    Version 2022.2 linked Thu May  5 22:39:45 2022


 **********************************************************************************************************************************
 LABEL *   CH3C6H4CN+CF3CN+BF3                                                           
  64 bit mpp version                                                                     DATE: 20-Oct-23          TIME: 20:17:15  
 **********************************************************************************************************************************

 SHA1:             518bf5c5e315925380b88506c70af759aa1d1d96
 **********************************************************************************************************************************

 Memory per process:       500 MW
 Total memory per node:   4000 MW

 GA preallocation disabled
 GA check disabled

 Variable memory set to 500.0 MW


 THRESHOLDS:

 ZERO    =  1.00D-15  ONEINT  =  1.00D-19  TWOINT  =  1.00D-19  PREFAC  =  1.00D-14  XXXXXX  =  1.00D-09  EORDER  =  1.00D-04
 ENERGY  =  1.00D-08  ETEST   =  0.00D+00  EDENS   =  0.00D+00  THRDEDEF=  1.00D-06  GRADIENT=  1.00D-05  STEP    =  1.00D-03
 ORBITAL =  1.00D-08  CIVEC   =  1.00D-05  COEFF   =  1.00D-04  PRINTCI =  5.00D-02  PUNCHCI =  9.90D+01  OPTGRAD =  3.00D-04
 OPTENERG=  1.00D-06  OPTSTEP =  3.00D-04  THRGRAD =  1.00D-10  COMPRESS=  1.00D-11  VARMIN  =  1.00D-07  VARMAX  =  1.00D-03
 THRDOUB =  0.00D+00  THRDIV  =  1.00D-05  THRRED  =  1.00D-07  THRPSP  =  1.00D+00  THRDC   =  1.00D-10  THRCS   =  1.00D-10
 THRNRM  =  1.00D-08  THREQ   =  0.00D+00  THRDE   =  1.00D+00  THRREF  =  1.00D-05  SPARFAC =  1.00D+00  THRDLP  =  1.00D-07
 THRDIA  =  1.00D-10  THRDLS  =  1.00D-07  THRGPS  =  0.00D+00  THRKEX  =  0.00D+00  THRDIS  =  2.00D-01  THRVAR  =  1.00D-10
 THRLOC  =  1.00D-06  THRGAP  =  1.00D-06  THRLOCT = -1.00D+00  THRGAPT = -1.00D+00  THRORB  =  1.00D-06  THRMLTP =  0.00D+00
 THRCPQCI=  1.00D-10  KEXTA   =  0.00D+00  THRCOARS=  0.00D+00  SYMTOL  =  1.00D-06  GRADTOL =  1.00D-06  THROVL  =  1.00D-08
 THRORTH =  1.00D-08  THRDLOVL= -1.00D+00  GRID    =  1.00D-08  GRIDMAX =  1.00D-03  DTMAX   =  0.00D+00  THROCCDE=  1.00D-01
 THROCCDE=  1.00D-01  THRPRINT=  2.50D-01

 SETTING GEOMTYP        =    XYZ
 ZSYMEL=NOSYM

 SETTING BASIS          =    AVTZ


 Recomputing integrals since basis changed


 Using spherical harmonics

 Library entry C      S aug-cc-pVTZ          selected for orbital group  1
 Library entry C      P aug-cc-pVTZ          selected for orbital group  1
 Library entry C      D aug-cc-pVTZ          selected for orbital group  1
 Library entry C      F aug-cc-pVTZ          selected for orbital group  1
 Library entry O      S aug-cc-pVTZ          selected for orbital group  2
 Library entry O      P aug-cc-pVTZ          selected for orbital group  2
 Library entry O      D aug-cc-pVTZ          selected for orbital group  2
 Library entry O      F aug-cc-pVTZ          selected for orbital group  2


 PROGRAM * SEWARD (Integral evaluation for generally contracted gaussian basis sets)     Author: Roland Lindh, 1990

 Geometry written to block  1 of record 700


 Point group  C1  



 ATOMIC COORDINATES

 NR  ATOM    CHARGE       X              Y              Z

   1  C1      6.00    0.000000000    0.107687933    0.000000000
   2  O1      8.00    0.000000000    2.319083238    0.000000000
   3  O2      8.00    0.000000000    9.877987737    0.000000000
   4  C2      6.00    0.000000000   12.089383043    0.000000000
   5  O3      8.00    0.000000000   14.300778348    0.000000000
   6  O4      8.00    0.000000000   -2.103707373    0.000000000

 Bond lengths in Bohr (Angstrom)

 1-2  2.211395306  1-6  2.211395306  3-4  2.211395306  4-5  2.211395306
     ( 1.170220000)     ( 1.170220000)     ( 1.170220000)     ( 1.170220000)

 Bond angles

  2-1-6  180.00000000   3-4-5  180.00000000

 NUCLEAR CHARGE:                   44
 NUMBER OF PRIMITIVE AOS:         402
 NUMBER OF SYMMETRY AOS:          348
 NUMBER OF CONTRACTIONS:          276   (  276A   )
 NUMBER OF INNER CORE ORBITALS:     0   (    0A   )
 NUMBER OF OUTER CORE ORBITALS:     6   (    6A   )
 NUMBER OF VALENCE ORBITALS:       24   (   24A   )


 NUCLEAR REPULSION ENERGY  158.40931940

 EXTRA SYMMETRY OF AOS IN SYMMETRY 1:   1 1 1 1 1 2 1 3 2 1   3 2 1 3 2 1 3 1 2 4   1 3 1 2 4 1 3 1 2 4   1 3 2 1 3 2 4 1 3 2
                                        1 3 2 4 1 3 1 1 1 1   1 2 1 3 2 1 3 2 1 3   2 1 3 1 2 4 1 3 1 2   4 1 3 1 2 4 1 3 2 1
                                        3 2 4 1 3 2 1 3 2 4   1 3 1 1 1 1 1 2 1 3   2 1 3 2 1 3 2 1 3 1   2 4 1 3 1 2 4 1 3 1
                                        2 4 1 3 2 1 3 2 4 1   3 2 1 3 2 4 1 3 1 1   1 1 1 2 1 3 2 1 3 2   1 3 2 1 3 1 2 4 1 3
                                        1 2 4 1 3 1 2 4 1 3   2 1 3 2 4 1 3 2 1 3   2 4 1 3 1 1 1 1 1 2   1 3 2 1 3 2 1 3 2 1
                                        3 1 2 4 1 3 1 2 4 1   3 1 2 4 1 3 2 1 3 2   4 1 3 2 1 3 2 4 1 3   1 1 1 1 1 2 1 3 2 1
                                        3 2 1 3 2 1 3 1 2 4   1 3 1 2 4 1 3 1 2 4   1 3 2 1 3 2 4 1 3 2   1 3 2 4 1 3

 Eigenvalues of metric

         1 0.161E-03 0.273E-03 0.401E-03 0.424E-03 0.515E-03 0.722E-03 0.863E-03 0.957E-03


 OPERATOR DM      FOR CENTER  0  COORDINATES:    0.000000    0.000000    0.000000


 **********************************************************************************************************************************
 DATASETS  * FILE   NREC   LENGTH (MB)   RECORD NAMES
              1      18       31.35       500      610      700      900      950      970     1000      129      960     1100   
                                          VAR    BASINP    GEOM    SYMINP    ZMAT    AOBASIS   BASIS     P2S    ABASIS      S 
                                         1400     1410     1200     1210     1080     1600     1650     1700   
                                           T        V       H0       H01     AOSYM     SMH    MOLCAS    OPER   

 PROGRAMS   *        TOTAL       INT
 CPU TIMES  *         0.47      0.25
 REAL TIME  *         1.46 SEC
 DISK USED  *        31.77 MB (local),      254.13 MB (total)
 GA USED    *         0.00 MB       (max)       0.00 MB       (current)
 **********************************************************************************************************************************


 Program * Restricted Kohn-Sham

 Density functional group PBE=PBEX+PBEC
 Functional: PBEX(Automatically generated (new) PBEX)                          Gradient terms: 1
 Functional: PBEC(Automatically generated (new) PBEC)                          Gradient terms: 1

 Functional: PBEX                   Factor:  1.0000
 Functional: PBEC                   Factor:  1.0000


 Setting radial_scaling=1d0
 Radial grid threshold:                     5.0D-09
 Global grid threshold:                     1.0D-08
 Angular grid threshold:                    1.0D-09
 Fac_Neighbour:                                 4.0
 Size adjustment in partitioning scheme:   TREUTLER
 Skip grid points with weights lower than:  1.0D-20
 Grid orientation:                           T

 Generated new metagrid on record  1800.2 with target accuracy 1.0D-08 and 80140 points in CPU time    0.2
 Computed new grid on record 1800.1 in CPU time    0.2

 DFT orbital screening threshold (tolorb):   1.0D-09


 Integral-direct calculation

 Orbital guess generated from atomic densities. Full valence occupancy:   30

 Initial occupancy:  22

 NELEC=   44   SYM=1   MS2= 0   THRE=1.0D-09   THRD=1.0D-04   THRG=1.0D-04  HFMA2=F  DIIS_START=2   DIIS_MAX=10   DIIS_INCORE=F

 Level shifts:    0.00 (CLOSED)    0.00 (OPEN)    0.30 (GAP_MIN)

 ITER           ETOT              DE          GRAD        DDIFF     DIIS  NEXP   TIME(IT)  TIME(TOT)  DIAG
   1     -376.80922994    -376.80922994     0.00D+00     0.49D-01     0     0       2.37      2.74    start
   2     -376.45719006       0.35203988     0.60D-02     0.12D-01     1     0       2.28      5.02    diag
   3     -376.94051222      -0.48332216     0.11D-01     0.84D-02     2     0       2.24      7.26    diag
   4     -376.94492514      -0.00441292     0.10D-02     0.10D-02     3     0       2.16      9.42    diag
   5     -376.94469036       0.00023479     0.29D-03     0.39D-03     4     0       2.05     11.47    diag
   6     -376.94528523      -0.00059487     0.38D-03     0.24D-03     5     0       2.02     13.49    diag
   7     -376.94528784      -0.00000261     0.26D-04     0.17D-04     6     0       1.86     15.35    diag
   8     -376.94528786      -0.00000002     0.26D-05     0.16D-05     7     0       1.66     17.01    fixocc
   9     -376.94528786       0.00000000     0.19D-06     0.18D-06     8     0       1.45     18.46    diag
  10     -376.94528786       0.00000000     0.20D-07     0.43D-07     0     0       1.23     19.69    diag/orth

 Final occupancy:  22

 !RKS STATE 1.1 Energy               -376.945287862728
  RKS One-electron energy            -829.208525835029
  RKS Two-electron energy             338.524449092510
  RKS Kinetic energy                  374.896610542718
  RKS Nuclear energy                  158.409319402460
  RKS Virial quotient                  -1.005464646151
 Density functional                   -44.67053052     PBEX=-43.19338841 PBEC= -1.47714212

 !RKS STATE 1.1 Dipole moment           0.00000000    -0.00000045     0.00000000
 Dipole moment /Debye                   0.00000000    -0.00000113     0.00000000

 Orbital energies:

           1.1          2.1          3.1          4.1          5.1          6.1          7.1          8.1          9.1         10.1
    -18.836128   -18.836128   -18.835841   -18.835840   -10.062299   -10.062288    -1.068219    -1.068215    -1.031314    -1.031292

          11.1         12.1         13.1         14.1         15.1         16.1         17.1         18.1         19.1         20.1
     -0.507245    -0.506227    -0.465067    -0.464044    -0.464044    -0.463980    -0.463980    -0.463684    -0.331799    -0.331799

          21.1         22.1         23.1         24.1
     -0.331542    -0.331542    -0.036562    -0.027970


 HOMO     22.1    -0.331542 =      -9.0217eV
 LUMO     23.1    -0.036562 =      -0.9949eV
 LUMO-HOMO         0.294980 =       8.0268eV

 Orbitals saved in record  2101.2


 **********************************************************************************************************************************
 DATASETS  * FILE   NREC   LENGTH (MB)   RECORD NAMES
              1      19       31.35       500      610      700      900      950      970     1000      129      960     1100   
                                          VAR    BASINP    GEOM    SYMINP    ZMAT    AOBASIS   BASIS     P2S    ABASIS      S 
                                         1400     1410     1200     1210     1080     1600     1650     1700     1800   
                                           T        V       H0       H01     AOSYM     SMH    MOLCAS    OPER     GRID   

              2       5        1.65       700     1000      520     1800     2101   
                                         GEOM     BASIS   MCVARS    GRID      RKS  

              4       2        0.58      8000     8001   

 PROGRAMS   *        TOTAL   RKS-SCF       INT
 CPU TIMES  *        20.37     19.90      0.25
 REAL TIME  *        21.62 SEC
 DISK USED  *        38.03 MB (local),      304.27 MB (total)
 SF USED    *         0.58 MB
 GA USED    *         0.00 MB       (max)       0.00 MB       (current)
 **********************************************************************************************************************************
 SETTING EAB_PBE        =      -376.94528786  AU                              

 Dummy atoms: O2  C2  O3


 Recomputing one-electron integrals since nuclear charges changed


 PROGRAM * SEWARD (Integral evaluation for generally contracted gaussian basis sets)     Author: Roland Lindh, 1990

 Geometry written to block  1 of record 700


 Point group  C1  



 ATOMIC COORDINATES

 NR  ATOM    CHARGE       X              Y              Z

   1  C1      6.00    0.000000000    0.107687933    0.000000000
   2  O1      8.00    0.000000000    2.319083238    0.000000000
   3  O2      0.00    0.000000000    9.877987737    0.000000000
   4  C2      0.00    0.000000000   12.089383043    0.000000000
   5  O3      0.00    0.000000000   14.300778348    0.000000000
   6  O4      8.00    0.000000000   -2.103707373    0.000000000

 Bond lengths in Bohr (Angstrom)

 1-2  2.211395306  1-6  2.211395306  3-4  2.211395306  4-5  2.211395306
     ( 1.170220000)     ( 1.170220000)     ( 1.170220000)     ( 1.170220000)

 Bond angles

  2-1-6  180.00000000   3-4-5  180.00000000

 NUCLEAR CHARGE:                   22
 NUMBER OF PRIMITIVE AOS:         402
 NUMBER OF SYMMETRY AOS:          348
 NUMBER OF CONTRACTIONS:          276   (  276A   )
 NUMBER OF INNER CORE ORBITALS:     0   (    0A   )
 NUMBER OF OUTER CORE ORBITALS:     3   (    3A   )
 NUMBER OF VALENCE ORBITALS:       12   (   12A   )

 MOLECULE CHANGED: INITIALIZING OCCUPATION AND DUMP RECORDS


 NUCLEAR REPULSION ENERGY   57.88200765

 EXTRA SYMMETRY OF AOS IN SYMMETRY 1:   1 1 1 1 1 2 1 3 2 1   3 2 1 3 2 1 3 1 2 4   1 3 1 2 4 1 3 1 2 4   1 3 2 1 3 2 4 1 3 2
                                        1 3 2 4 1 3 1 1 1 1   1 2 1 3 2 1 3 2 1 3   2 1 3 1 2 4 1 3 1 2   4 1 3 1 2 4 1 3 2 1
                                        3 2 4 1 3 2 1 3 2 4   1 3 1 1 1 1 1 2 1 3   2 1 3 2 1 3 2 1 3 1   2 4 1 3 1 2 4 1 3 1
                                        2 4 1 3 2 1 3 2 4 1   3 2 1 3 2 4 1 3 1 1   1 1 1 2 1 3 2 1 3 2   1 3 2 1 3 1 2 4 1 3
                                        1 2 4 1 3 1 2 4 1 3   2 1 3 2 4 1 3 2 1 3   2 4 1 3 1 1 1 1 1 2   1 3 2 1 3 2 1 3 2 1
                                        3 1 2 4 1 3 1 2 4 1   3 1 2 4 1 3 2 1 3 2   4 1 3 2 1 3 2 4 1 3   1 1 1 1 1 2 1 3 2 1
                                        3 2 1 3 2 1 3 1 2 4   1 3 1 2 4 1 3 1 2 4   1 3 2 1 3 2 4 1 3 2   1 3 2 4 1 3

 Eigenvalues of metric

         1 0.161E-03 0.273E-03 0.401E-03 0.424E-03 0.515E-03 0.722E-03 0.863E-03 0.957E-03


 OPERATOR DM      FOR CENTER  0  COORDINATES:    0.000000    0.000000    0.000000


 **********************************************************************************************************************************
 DATASETS  * FILE   NREC   LENGTH (MB)   RECORD NAMES
              1      19       31.35       500      610      700      900      950      970     1000      129      960     1100   
                                          VAR    BASINP    GEOM    SYMINP    ZMAT    AOBASIS   BASIS     P2S    ABASIS      S 
                                         1400     1410     1200     1210     1080     1600     1650     1700     1800   
                                           T        V       H0       H01     AOSYM     SMH    MOLCAS    OPER     GRID   

              2       5        1.65       700     1000      520     1800     2101   
                                         GEOM     BASIS   MCVARS    GRID      RKS  

 PROGRAMS   *        TOTAL       INT   RKS-SCF       INT
 CPU TIMES  *        20.43      0.05     19.90      0.25
 REAL TIME  *        21.75 SEC
 DISK USED  *        38.03 MB (local),      304.27 MB (total)
 SF USED    *         0.58 MB
 GA USED    *         0.00 MB       (max)       0.00 MB       (current)
 **********************************************************************************************************************************


 Program * Restricted Kohn-Sham

 Density functional group PBE=PBEX+PBEC
 Functional: PBEX(Automatically generated (new) PBEX)                          Gradient terms: 1
 Functional: PBEC(Automatically generated (new) PBEC)                          Gradient terms: 1

 Functional: PBEX                   Factor:  1.0000
 Functional: PBEC                   Factor:  1.0000

 Radial grid threshold:                     5.0D-09
 Accuracy mode for quadrature:              DEFAULT
 Global grid threshold:                     1.0D-08
 Angular grid threshold:                    1.0D-09
 Fac_Neighbour:                                 4.0
 Size adjustment in partitioning scheme:   TREUTLER
 Skip grid points with weights lower than:  1.0D-20
 Grid orientation:                           T

 Generated new metagrid on record  1800.2 with target accuracy 1.0D-08 and 80140 points in CPU time    0.2
 Computed new grid on record 1800.1 in CPU time    0.2

 DFT orbital screening threshold (tolorb):   1.0D-09


 Integral-direct calculation

 Orbital guess generated from atomic densities. Full valence occupancy:   15

 Initial occupancy:  11

 NELEC=   22   SYM=1   MS2= 0   THRE=1.0D-09   THRD=1.0D-04   THRG=1.0D-04  HFMA2=F  DIIS_START=2   DIIS_MAX=10   DIIS_INCORE=F

 Level shifts:    0.00 (CLOSED)    0.00 (OPEN)    0.30 (GAP_MIN)

 ITER           ETOT              DE          GRAD        DDIFF     DIIS  NEXP   TIME(IT)  TIME(TOT)  DIAG
   1     -188.40488959    -188.40488959     0.00D+00     0.35D-01     0     0       2.26      2.57    start
   2     -188.22919831       0.17569128     0.59D-02     0.83D-02     1     0       2.16      4.73    diag
   3     -188.47038976      -0.24119144     0.11D-01     0.59D-02     2     0       2.12      6.85    diag
   4     -188.47265674      -0.00226698     0.97D-03     0.72D-03     3     0       2.01      8.86    diag
   5     -188.47271003      -0.00005329     0.15D-03     0.83D-04     4     0       1.90     10.76    diag
   6     -188.47271200      -0.00000196     0.32D-04     0.16D-04     5     0       1.71     12.47    diag
   7     -188.47271191       0.00000009     0.71D-05     0.71D-05     6     0       1.56     14.03    diag
   8     -188.47271210      -0.00000019     0.95D-05     0.43D-05     7     0       1.52     15.55    fixocc
   9     -188.47271210       0.00000000     0.19D-06     0.13D-06     8     0       1.17     16.72    diag
  10     -188.47271210       0.00000000     0.18D-07     0.29D-07     0     0       0.91     17.63    diag/orth

 Final occupancy:  11

 !RKS STATE 1.1 Energy               -188.472712102582
  RKS One-electron energy            -371.914885045912
  RKS Two-electron energy             147.895471180100
  RKS Kinetic energy                  187.447813845999
  RKS Nuclear energy                   57.882007652906
  RKS Virial quotient                  -1.005467645824
 Density functional                   -22.33530589     PBEX=-21.59674479 PBEC= -0.73856110

 !RKS STATE 1.1 Dipole moment          -0.00000000     0.00028609     0.00000000
 Dipole moment /Debye                  -0.00000000     0.00072716     0.00000000

 Orbital energies:

           1.1          2.1          3.1          4.1          5.1          6.1          7.1          8.1          9.1         10.1
    -18.837977   -18.837941   -10.064344    -1.070171    -1.033276    -0.508879    -0.466573    -0.465939    -0.465939    -0.333659

          11.1         12.1         13.1
     -0.333659    -0.033848    -0.017273


 HOMO     11.1    -0.333659 =      -9.0793eV
 LUMO     12.1    -0.033848 =      -0.9210eV
 LUMO-HOMO         0.299811 =       8.1583eV

 Orbitals saved in record  2201.2


 **********************************************************************************************************************************
 DATASETS  * FILE   NREC   LENGTH (MB)   RECORD NAMES
              1      19       31.35       500      610      700      900      950      970     1000      129      960     1100   
                                          VAR    BASINP    GEOM    SYMINP    ZMAT    AOBASIS   BASIS     P2S    ABASIS      S 
                                         1400     1410     1200     1210     1080     1600     1650     1700     1800   
                                           T        V       H0       H01     AOSYM     SMH    MOLCAS    OPER     GRID   

              2       6        3.79       700     1000      520     1800     2101     2201   
                                         GEOM     BASIS   MCVARS    GRID      RKS      RKS  

              4       2        0.58      8000     8001   

 PROGRAMS   *        TOTAL   RKS-SCF       INT   RKS-SCF       INT
 CPU TIMES  *        38.27     17.84      0.05     19.90      0.25
 REAL TIME  *        39.70 SEC
 DISK USED  *        40.18 MB (local),      321.41 MB (total)
 SF USED    *         3.03 MB
 GA USED    *         0.00 MB       (max)       0.00 MB       (current)
 **********************************************************************************************************************************
 SETTING EA_PBE         =      -188.47271210  AU                              

 Dummy atoms: C1  O1  O4


 Recomputing one-electron integrals since nuclear charges changed


 PROGRAM * SEWARD (Integral evaluation for generally contracted gaussian basis sets)     Author: Roland Lindh, 1990

 Geometry written to block  1 of record 700


 Point group  C1  



 ATOMIC COORDINATES

 NR  ATOM    CHARGE       X              Y              Z

   1  C1      0.00    0.000000000    0.107687933    0.000000000
   2  O1      0.00    0.000000000    2.319083238    0.000000000
   3  O2      8.00    0.000000000    9.877987737    0.000000000
   4  C2      6.00    0.000000000   12.089383043    0.000000000
   5  O3      8.00    0.000000000   14.300778348    0.000000000
   6  O4      0.00    0.000000000   -2.103707373    0.000000000

 Bond lengths in Bohr (Angstrom)

 1-2  2.211395306  1-6  2.211395306  3-4  2.211395306  4-5  2.211395306
     ( 1.170220000)     ( 1.170220000)     ( 1.170220000)     ( 1.170220000)

 Bond angles

  2-1-6  180.00000000   3-4-5  180.00000000

 NUCLEAR CHARGE:                   22
 NUMBER OF PRIMITIVE AOS:         402
 NUMBER OF SYMMETRY AOS:          348
 NUMBER OF CONTRACTIONS:          276   (  276A   )
 NUMBER OF INNER CORE ORBITALS:     0   (    0A   )
 NUMBER OF OUTER CORE ORBITALS:     3   (    3A   )
 NUMBER OF VALENCE ORBITALS:       12   (   12A   )

 MOLECULE CHANGED: INITIALIZING OCCUPATION AND DUMP RECORDS


 NUCLEAR REPULSION ENERGY   57.88200765

 EXTRA SYMMETRY OF AOS IN SYMMETRY 1:   1 1 1 1 1 2 1 3 2 1   3 2 1 3 2 1 3 1 2 4   1 3 1 2 4 1 3 1 2 4   1 3 2 1 3 2 4 1 3 2
                                        1 3 2 4 1 3 1 1 1 1   1 2 1 3 2 1 3 2 1 3   2 1 3 1 2 4 1 3 1 2   4 1 3 1 2 4 1 3 2 1
                                        3 2 4 1 3 2 1 3 2 4   1 3 1 1 1 1 1 2 1 3   2 1 3 2 1 3 2 1 3 1   2 4 1 3 1 2 4 1 3 1
                                        2 4 1 3 2 1 3 2 4 1   3 2 1 3 2 4 1 3 1 1   1 1 1 2 1 3 2 1 3 2   1 3 2 1 3 1 2 4 1 3
                                        1 2 4 1 3 1 2 4 1 3   2 1 3 2 4 1 3 2 1 3   2 4 1 3 1 1 1 1 1 2   1 3 2 1 3 2 1 3 2 1
                                        3 1 2 4 1 3 1 2 4 1   3 1 2 4 1 3 2 1 3 2   4 1 3 2 1 3 2 4 1 3   1 1 1 1 1 2 1 3 2 1
                                        3 2 1 3 2 1 3 1 2 4   1 3 1 2 4 1 3 1 2 4   1 3 2 1 3 2 4 1 3 2   1 3 2 4 1 3

 Eigenvalues of metric

         1 0.161E-03 0.273E-03 0.401E-03 0.424E-03 0.515E-03 0.722E-03 0.863E-03 0.957E-03


 OPERATOR DM      FOR CENTER  0  COORDINATES:    0.000000    0.000000    0.000000


 **********************************************************************************************************************************
 DATASETS  * FILE   NREC   LENGTH (MB)   RECORD NAMES
              1      19       31.35       500      610      700      900      950      970     1000      129      960     1100   
                                          VAR    BASINP    GEOM    SYMINP    ZMAT    AOBASIS   BASIS     P2S    ABASIS      S 
                                         1400     1410     1200     1210     1080     1600     1650     1700     1800   
                                           T        V       H0       H01     AOSYM     SMH    MOLCAS    OPER     GRID   

              2       6        3.79       700     1000      520     1800     2101     2201   
                                         GEOM     BASIS   MCVARS    GRID      RKS      RKS  

 PROGRAMS   *        TOTAL       INT   RKS-SCF       INT   RKS-SCF       INT
 CPU TIMES  *        38.33      0.06     17.84      0.05     19.90      0.25
 REAL TIME  *        39.83 SEC
 DISK USED  *        40.18 MB (local),      321.41 MB (total)
 SF USED    *         3.03 MB
 GA USED    *         0.00 MB       (max)       0.00 MB       (current)
 **********************************************************************************************************************************


 Program * Restricted Kohn-Sham

 Density functional group PBE=PBEX+PBEC
 Functional: PBEX(Automatically generated (new) PBEX)                          Gradient terms: 1
 Functional: PBEC(Automatically generated (new) PBEC)                          Gradient terms: 1

 Functional: PBEX                   Factor:  1.0000
 Functional: PBEC                   Factor:  1.0000

 Radial grid threshold:                     5.0D-09
 Accuracy mode for quadrature:              DEFAULT
 Global grid threshold:                     1.0D-08
 Angular grid threshold:                    1.0D-09
 Fac_Neighbour:                                 4.0
 Size adjustment in partitioning scheme:   TREUTLER
 Skip grid points with weights lower than:  1.0D-20
 Grid orientation:                           T


 DFT orbital screening threshold (tolorb):   1.0D-09


 Integral-direct calculation

 Orbital guess generated from atomic densities. Full valence occupancy:   15

 Initial occupancy:  11

 NELEC=   22   SYM=1   MS2= 0   THRE=1.0D-09   THRD=1.0D-04   THRG=1.0D-04  HFMA2=F  DIIS_START=2   DIIS_MAX=10   DIIS_INCORE=F

 Level shifts:    0.00 (CLOSED)    0.00 (OPEN)    0.30 (GAP_MIN)

 ITER           ETOT              DE          GRAD        DDIFF     DIIS  NEXP   TIME(IT)  TIME(TOT)  DIAG
   1     -188.40488959    -188.40488959     0.00D+00     0.35D-01     0     0       2.27      2.58    start
   2     -188.22919833       0.17569127     0.59D-02     0.83D-02     1     0       2.17      4.75    diag
   3     -188.47038976      -0.24119143     0.11D-01     0.59D-02     2     0       2.13      6.88    diag
   4     -188.47265674      -0.00226698     0.97D-03     0.72D-03     3     0       2.01      8.89    diag
   5     -188.47271003      -0.00005329     0.15D-03     0.83D-04     4     0       1.90     10.79    diag
   6     -188.47271199      -0.00000196     0.32D-04     0.16D-04     5     0       1.75     12.54    diag
   7     -188.47271191       0.00000009     0.71D-05     0.71D-05     6     0       1.56     14.10    diag
   8     -188.47271210      -0.00000019     0.95D-05     0.43D-05     7     0       1.53     15.63    fixocc
   9     -188.47271210       0.00000000     0.19D-06     0.13D-06     8     0       1.16     16.79    diag
  10     -188.47271210       0.00000000     0.18D-07     0.29D-07     0     0       0.93     17.72    diag/orth

 Final occupancy:  11

 !RKS STATE 1.1 Energy               -188.472712100134
  RKS One-electron energy            -371.914885032917
  RKS Two-electron energy             147.895471165909
  RKS Kinetic energy                  187.447813850005
  RKS Nuclear energy                   57.882007652906
  RKS Virial quotient                  -1.005467645789
 Density functional                   -22.33530589     PBEX=-21.59674478 PBEC= -0.73856110

 !RKS STATE 1.1 Dipole moment          -0.00000000    -0.00028608    -0.00000000
 Dipole moment /Debye                  -0.00000000    -0.00072714    -0.00000000

 Orbital energies:

           1.1          2.1          3.1          4.1          5.1          6.1          7.1          8.1          9.1         10.1
    -18.837977   -18.837941   -10.064344    -1.070171    -1.033276    -0.508879    -0.466573    -0.465939    -0.465939    -0.333659

          11.1         12.1         13.1
     -0.333659    -0.033848    -0.017273


 HOMO     11.1    -0.333659 =      -9.0793eV
 LUMO     12.1    -0.033848 =      -0.9210eV
 LUMO-HOMO         0.299811 =       8.1583eV

 Orbitals saved in record  2301.2


 **********************************************************************************************************************************
 DATASETS  * FILE   NREC   LENGTH (MB)   RECORD NAMES
              1      19       31.35       500      610      700      900      950      970     1000      129      960     1100   
                                          VAR    BASINP    GEOM    SYMINP    ZMAT    AOBASIS   BASIS     P2S    ABASIS      S 
                                         1400     1410     1200     1210     1080     1600     1650     1700     1800   
                                           T        V       H0       H01     AOSYM     SMH    MOLCAS    OPER     GRID   

              2       7        5.93       700     1000      520     1800     2101     2201     2301   
                                         GEOM     BASIS   MCVARS    GRID      RKS      RKS      RKS  

              4       2        0.58      8000     8001   

 PROGRAMS   *        TOTAL   RKS-SCF       INT   RKS-SCF       INT   RKS-SCF       INT
 CPU TIMES  *        56.06     17.73      0.06     17.84      0.05     19.90      0.25
 REAL TIME  *        57.63 SEC
 DISK USED  *        42.32 MB (local),      338.55 MB (total)
 SF USED    *         3.03 MB
 GA USED    *         0.00 MB       (max)       0.00 MB       (current)
 **********************************************************************************************************************************
 SETTING EB_PBE         =      -188.47271210  AU                              
 SETTING E_AB_INT       =         0.00013634  AU                              

 *** results in hartree
 E_AB_INT         =         0.00013634 AU

 RPBE/aug-cc-pVTZ energy=   -188.472712100134

         RKS-SCF         RKS-SCF         RKS-SCF
   -188.47271210   -188.47271210   -376.94528786
 **********************************************************************************************************************************
 Molpro calculation terminated
