
 Working directory              : /scratch/yourdkhs/302882/molpro.vD3L7lmX9H/
 Global scratch directory       : /scratch/yourdkhs/302882/molpro.vD3L7lmX9H/
 Wavefunction directory         : /scratch/yourdkhs/302882/
 Main file repository           : /scratch/yourdkhs/302882/molpro.vD3L7lmX9H/

 id        : karlovklimes

 Nodes                      nprocs
 nc-10.cc.karlov.mff.cuni.cz    8
 GA implementation: MPI file
 GA implementation (serial work in mppx): MPI file

 Using customized tuning parameters: mindgm=1; mindgv=20; mindgc=4; mindgr=1; noblas=0; minvec=7
 default implementation of scratch files=sf  


 Variables initialized (1015), CPU time= 0.01 sec
 ***,CH3C6H4CN+CF3CN+BF3
 memory,500,m
 gdirect
 gthresh,energy=1.d-8,twoint=1.d-19,oneint=1.d-19,zero=1.d-15,orbital=1.d-8,grid=1.d-8
 symmetry,nosym
 geomtyp=xyz
                                                                                 ! Geometry
 geometry={
 C1        0.000000000    0.056986000     0.000000000
 O1        0.000000000    1.227206000     0.000000000
 O2        0.000000000    3.927206000     0.000000000
 C2        0.000000000    5.097426000     0.000000000
 O3        0.000000000    6.267646000     0.000000000
 O4        0.000000000    -1.113234000     0.000000000
 }
 
 
 
 basis=avtz
 
 
 
                                                                                 ! Dimer Calculation
 {rks,pbe,accu=1.d-8;orbital,2101.2}
 eab_PBE=energy
 
 
                                                                                 !monomer A
 dummy,3,4,5;                                                                    ! NOW MONOMER B IS DUMMY
 {rks,pbe,accu=1.d-8;orbital,2201.2}
 ea_PBE=energy
                                                                                 !monomer B
 dummy,1,2,6;                                                                    !NOW MONOMER A IS DUMMY
 {rks,pbe,accu=1.d-8;orbital,2301.2}
 eb_PBE=energy
 
 E_AB_int=eab_PBE-ea_PBE-eb_PBE
 
 
 text,results in hartree
 show,E_AB_int
 
 Commands initialized (834), CPU time= 0.01 sec, 672 directives.
 Default parameters read. Elapsed time= 0.30 sec

 Checking input...
 Passed
1


                                         ***  PROGRAM SYSTEM MOLPRO  ***
                                       Copyright, TTI GmbH Stuttgart, 2015
                                    Version 2022.2 linked Thu May  5 22:39:45 2022


 **********************************************************************************************************************************
 LABEL *   CH3C6H4CN+CF3CN+BF3                                                           
  64 bit mpp version                                                                     DATE: 20-Oct-23          TIME: 20:15:30  
 **********************************************************************************************************************************

 SHA1:             518bf5c5e315925380b88506c70af759aa1d1d96
 **********************************************************************************************************************************

 Memory per process:       500 MW
 Total memory per node:   4000 MW

 GA preallocation disabled
 GA check disabled

 Variable memory set to 500.0 MW


 THRESHOLDS:

 ZERO    =  1.00D-15  ONEINT  =  1.00D-19  TWOINT  =  1.00D-19  PREFAC  =  1.00D-14  XXXXXX  =  1.00D-09  EORDER  =  1.00D-04
 ENERGY  =  1.00D-08  ETEST   =  0.00D+00  EDENS   =  0.00D+00  THRDEDEF=  1.00D-06  GRADIENT=  1.00D-05  STEP    =  1.00D-03
 ORBITAL =  1.00D-08  CIVEC   =  1.00D-05  COEFF   =  1.00D-04  PRINTCI =  5.00D-02  PUNCHCI =  9.90D+01  OPTGRAD =  3.00D-04
 OPTENERG=  1.00D-06  OPTSTEP =  3.00D-04  THRGRAD =  1.00D-10  COMPRESS=  1.00D-11  VARMIN  =  1.00D-07  VARMAX  =  1.00D-03
 THRDOUB =  0.00D+00  THRDIV  =  1.00D-05  THRRED  =  1.00D-07  THRPSP  =  1.00D+00  THRDC   =  1.00D-10  THRCS   =  1.00D-10
 THRNRM  =  1.00D-08  THREQ   =  0.00D+00  THRDE   =  1.00D+00  THRREF  =  1.00D-05  SPARFAC =  1.00D+00  THRDLP  =  1.00D-07
 THRDIA  =  1.00D-10  THRDLS  =  1.00D-07  THRGPS  =  0.00D+00  THRKEX  =  0.00D+00  THRDIS  =  2.00D-01  THRVAR  =  1.00D-10
 THRLOC  =  1.00D-06  THRGAP  =  1.00D-06  THRLOCT = -1.00D+00  THRGAPT = -1.00D+00  THRORB  =  1.00D-06  THRMLTP =  0.00D+00
 THRCPQCI=  1.00D-10  KEXTA   =  0.00D+00  THRCOARS=  0.00D+00  SYMTOL  =  1.00D-06  GRADTOL =  1.00D-06  THROVL  =  1.00D-08
 THRORTH =  1.00D-08  THRDLOVL= -1.00D+00  GRID    =  1.00D-08  GRIDMAX =  1.00D-03  DTMAX   =  0.00D+00  THROCCDE=  1.00D-01
 THROCCDE=  1.00D-01  THRPRINT=  2.50D-01

 SETTING GEOMTYP        =    XYZ
 ZSYMEL=NOSYM

 SETTING BASIS          =    AVTZ


 Recomputing integrals since basis changed


 Using spherical harmonics

 Library entry C      S aug-cc-pVTZ          selected for orbital group  1
 Library entry C      P aug-cc-pVTZ          selected for orbital group  1
 Library entry C      D aug-cc-pVTZ          selected for orbital group  1
 Library entry C      F aug-cc-pVTZ          selected for orbital group  1
 Library entry O      S aug-cc-pVTZ          selected for orbital group  2
 Library entry O      P aug-cc-pVTZ          selected for orbital group  2
 Library entry O      D aug-cc-pVTZ          selected for orbital group  2
 Library entry O      F aug-cc-pVTZ          selected for orbital group  2


 PROGRAM * SEWARD (Integral evaluation for generally contracted gaussian basis sets)     Author: Roland Lindh, 1990

 Geometry written to block  1 of record 700


 Point group  C1  



 ATOMIC COORDINATES

 NR  ATOM    CHARGE       X              Y              Z

   1  C1      6.00    0.000000000    0.107687933    0.000000000
   2  O1      8.00    0.000000000    2.319083238    0.000000000
   3  O2      8.00    0.000000000    7.421343775    0.000000000
   4  C2      6.00    0.000000000    9.632739081    0.000000000
   5  O3      8.00    0.000000000   11.844134386    0.000000000
   6  O4      8.00    0.000000000   -2.103707373    0.000000000

 Bond lengths in Bohr (Angstrom)

 1-2  2.211395306  1-6  2.211395306  3-4  2.211395306  4-5  2.211395306
     ( 1.170220000)     ( 1.170220000)     ( 1.170220000)     ( 1.170220000)

 Bond angles

  2-1-6  180.00000000   3-4-5  180.00000000

 NUCLEAR CHARGE:                   44
 NUMBER OF PRIMITIVE AOS:         402
 NUMBER OF SYMMETRY AOS:          348
 NUMBER OF CONTRACTIONS:          276   (  276A   )
 NUMBER OF INNER CORE ORBITALS:     0   (    0A   )
 NUMBER OF OUTER CORE ORBITALS:     6   (    6A   )
 NUMBER OF VALENCE ORBITALS:       24   (   24A   )


 NUCLEAR REPULSION ENERGY  171.41953225

 EXTRA SYMMETRY OF AOS IN SYMMETRY 1:   1 1 1 1 1 2 1 3 2 1   3 2 1 3 2 1 3 1 2 4   1 3 1 2 4 1 3 1 2 4   1 3 2 1 3 2 4 1 3 2
                                        1 3 2 4 1 3 1 1 1 1   1 2 1 3 2 1 3 2 1 3   2 1 3 1 2 4 1 3 1 2   4 1 3 1 2 4 1 3 2 1
                                        3 2 4 1 3 2 1 3 2 4   1 3 1 1 1 1 1 2 1 3   2 1 3 2 1 3 2 1 3 1   2 4 1 3 1 2 4 1 3 1
                                        2 4 1 3 2 1 3 2 4 1   3 2 1 3 2 4 1 3 1 1   1 1 1 2 1 3 2 1 3 2   1 3 2 1 3 1 2 4 1 3
                                        1 2 4 1 3 1 2 4 1 3   2 1 3 2 4 1 3 2 1 3   2 4 1 3 1 1 1 1 1 2   1 3 2 1 3 2 1 3 2 1
                                        3 1 2 4 1 3 1 2 4 1   3 1 2 4 1 3 2 1 3 2   4 1 3 2 1 3 2 4 1 3   1 1 1 1 1 2 1 3 2 1
                                        3 2 1 3 2 1 3 1 2 4   1 3 1 2 4 1 3 1 2 4   1 3 2 1 3 2 4 1 3 2   1 3 2 4 1 3

 Eigenvalues of metric

         1 0.566E-04 0.203E-03 0.234E-03 0.370E-03 0.426E-03 0.620E-03 0.714E-03 0.858E-03


 OPERATOR DM      FOR CENTER  0  COORDINATES:    0.000000    0.000000    0.000000


 **********************************************************************************************************************************
 DATASETS  * FILE   NREC   LENGTH (MB)   RECORD NAMES
              1      18       31.35       500      610      700      900      950      970     1000      129      960     1100   
                                          VAR    BASINP    GEOM    SYMINP    ZMAT    AOBASIS   BASIS     P2S    ABASIS      S 
                                         1400     1410     1200     1210     1080     1600     1650     1700   
                                           T        V       H0       H01     AOSYM     SMH    MOLCAS    OPER   

 PROGRAMS   *        TOTAL       INT
 CPU TIMES  *         0.61      0.32
 REAL TIME  *         1.82 SEC
 DISK USED  *        31.77 MB (local),      254.13 MB (total)
 GA USED    *         0.00 MB       (max)       0.00 MB       (current)
 **********************************************************************************************************************************


 Program * Restricted Kohn-Sham

 Density functional group PBE=PBEX+PBEC
 Functional: PBEX(Automatically generated (new) PBEX)                          Gradient terms: 1
 Functional: PBEC(Automatically generated (new) PBEC)                          Gradient terms: 1

 Functional: PBEX                   Factor:  1.0000
 Functional: PBEC                   Factor:  1.0000


 Setting radial_scaling=1d0
 Radial grid threshold:                     5.0D-09
 Global grid threshold:                     1.0D-08
 Angular grid threshold:                    1.0D-09
 Fac_Neighbour:                                 4.0
 Size adjustment in partitioning scheme:   TREUTLER
 Skip grid points with weights lower than:  1.0D-20
 Grid orientation:                           T

 Generated new metagrid on record  1800.2 with target accuracy 1.0D-08 and 80140 points in CPU time    0.2
 Computed new grid on record 1800.1 in CPU time    0.3

 DFT orbital screening threshold (tolorb):   1.0D-09


 Integral-direct calculation

 Orbital guess generated from atomic densities. Full valence occupancy:   30

 Initial occupancy:  22

 NELEC=   44   SYM=1   MS2= 0   THRE=1.0D-09   THRD=1.0D-04   THRG=1.0D-04  HFMA2=F  DIIS_START=2   DIIS_MAX=10   DIIS_INCORE=F

 Level shifts:    0.00 (CLOSED)    0.00 (OPEN)    0.30 (GAP_MIN)

 ITER           ETOT              DE          GRAD        DDIFF     DIIS  NEXP   TIME(IT)  TIME(TOT)  DIAG
   1     -376.80617121    -376.80617121     0.00D+00     0.49D-01     0     0       3.65      4.26    start
   2     -376.45682540       0.34934580     0.60D-02     0.12D-01     1     0       3.54      7.80    diag
   3     -376.93789723      -0.48107182     0.11D-01     0.84D-02     2     0       3.50     11.30    diag
   4     -376.94170343      -0.00380620     0.11D-02     0.12D-02     3     0       3.37     14.67    diag
   5     -376.94335651      -0.00165308     0.70D-03     0.58D-03     4     0       3.29     17.96    diag
   6     -376.94368059      -0.00032408     0.28D-03     0.19D-03     5     0       3.21     21.17    diag
   7     -376.94368350      -0.00000290     0.28D-04     0.19D-04     6     0       2.99     24.16    diag
   8     -376.94368353      -0.00000003     0.31D-05     0.20D-05     7     0       2.74     26.90    fixocc
   9     -376.94368353      -0.00000000     0.25D-06     0.22D-06     8     0       2.38     29.28    diag
  10     -376.94368353       0.00000000     0.43D-07     0.11D-06     0     0       2.19     31.47    diag/orth

 Final occupancy:  22

 !RKS STATE 1.1 Energy               -376.943683529035
  RKS One-electron energy            -855.329622122449
  RKS Two-electron energy             351.642451384865
  RKS Kinetic energy                  374.928396084937
  RKS Nuclear energy                  171.419532251778
  RKS Virial quotient                  -1.005375126198
 Density functional                   -44.67604504     PBEX=-43.19772588 PBEC= -1.47831916

 !RKS STATE 1.1 Dipole moment           0.00000000    -0.00000073    -0.00000000
 Dipole moment /Debye                   0.00000000    -0.00000184    -0.00000000

 Orbital energies:

           1.1          2.1          3.1          4.1          5.1          6.1          7.1          8.1          9.1         10.1
    -18.834030   -18.834029   -18.832655   -18.832653   -10.059538   -10.059523    -1.066282    -1.065657    -1.029449    -1.028529

          11.1         12.1         13.1         14.1         15.1         16.1         17.1         18.1         19.1         20.1
     -0.512905    -0.498357    -0.469483    -0.462464    -0.462464    -0.461252    -0.461252    -0.450440    -0.331182    -0.331182

          21.1         22.1         23.1         24.1
     -0.327671    -0.327671    -0.037372    -0.022310


 HOMO     22.1    -0.327671 =      -8.9164eV
 LUMO     23.1    -0.037372 =      -1.0170eV
 LUMO-HOMO         0.290298 =       7.8994eV

 Orbitals saved in record  2101.2


 **********************************************************************************************************************************
 DATASETS  * FILE   NREC   LENGTH (MB)   RECORD NAMES
              1      19       31.35       500      610      700      900      950      970     1000      129      960     1100   
                                          VAR    BASINP    GEOM    SYMINP    ZMAT    AOBASIS   BASIS     P2S    ABASIS      S 
                                         1400     1410     1200     1210     1080     1600     1650     1700     1800   
                                           T        V       H0       H01     AOSYM     SMH    MOLCAS    OPER     GRID   

              2       5        1.65       700     1000      520     1800     2101   
                                         GEOM     BASIS   MCVARS    GRID      RKS  

              4       2        0.58      8000     8001   

 PROGRAMS   *        TOTAL   RKS-SCF       INT
 CPU TIMES  *        32.38     31.77      0.32
 REAL TIME  *        33.76 SEC
 DISK USED  *        38.03 MB (local),      304.27 MB (total)
 SF USED    *         0.58 MB
 GA USED    *         0.00 MB       (max)       0.00 MB       (current)
 **********************************************************************************************************************************
 SETTING EAB_PBE        =      -376.94368353  AU                              

 Dummy atoms: O2  C2  O3


 Recomputing one-electron integrals since nuclear charges changed


 PROGRAM * SEWARD (Integral evaluation for generally contracted gaussian basis sets)     Author: Roland Lindh, 1990

 Geometry written to block  1 of record 700


 Point group  C1  



 ATOMIC COORDINATES

 NR  ATOM    CHARGE       X              Y              Z

   1  C1      6.00    0.000000000    0.107687933    0.000000000
   2  O1      8.00    0.000000000    2.319083238    0.000000000
   3  O2      0.00    0.000000000    7.421343775    0.000000000
   4  C2      0.00    0.000000000    9.632739081    0.000000000
   5  O3      0.00    0.000000000   11.844134386    0.000000000
   6  O4      8.00    0.000000000   -2.103707373    0.000000000

 Bond lengths in Bohr (Angstrom)

 1-2  2.211395306  1-6  2.211395306  3-4  2.211395306  4-5  2.211395306
     ( 1.170220000)     ( 1.170220000)     ( 1.170220000)     ( 1.170220000)

 Bond angles

  2-1-6  180.00000000   3-4-5  179.99999879

 NUCLEAR CHARGE:                   22
 NUMBER OF PRIMITIVE AOS:         402
 NUMBER OF SYMMETRY AOS:          348
 NUMBER OF CONTRACTIONS:          276   (  276A   )
 NUMBER OF INNER CORE ORBITALS:     0   (    0A   )
 NUMBER OF OUTER CORE ORBITALS:     3   (    3A   )
 NUMBER OF VALENCE ORBITALS:       12   (   12A   )

 MOLECULE CHANGED: INITIALIZING OCCUPATION AND DUMP RECORDS


 NUCLEAR REPULSION ENERGY   57.88200765

 EXTRA SYMMETRY OF AOS IN SYMMETRY 1:   1 1 1 1 1 2 1 3 2 1   3 2 1 3 2 1 3 1 2 4   1 3 1 2 4 1 3 1 2 4   1 3 2 1 3 2 4 1 3 2
                                        1 3 2 4 1 3 1 1 1 1   1 2 1 3 2 1 3 2 1 3   2 1 3 1 2 4 1 3 1 2   4 1 3 1 2 4 1 3 2 1
                                        3 2 4 1 3 2 1 3 2 4   1 3 1 1 1 1 1 2 1 3   2 1 3 2 1 3 2 1 3 1   2 4 1 3 1 2 4 1 3 1
                                        2 4 1 3 2 1 3 2 4 1   3 2 1 3 2 4 1 3 1 1   1 1 1 2 1 3 2 1 3 2   1 3 2 1 3 1 2 4 1 3
                                        1 2 4 1 3 1 2 4 1 3   2 1 3 2 4 1 3 2 1 3   2 4 1 3 1 1 1 1 1 2   1 3 2 1 3 2 1 3 2 1
                                        3 1 2 4 1 3 1 2 4 1   3 1 2 4 1 3 2 1 3 2   4 1 3 2 1 3 2 4 1 3   1 1 1 1 1 2 1 3 2 1
                                        3 2 1 3 2 1 3 1 2 4   1 3 1 2 4 1 3 1 2 4   1 3 2 1 3 2 4 1 3 2   1 3 2 4 1 3

 Eigenvalues of metric

         1 0.566E-04 0.203E-03 0.234E-03 0.370E-03 0.426E-03 0.620E-03 0.714E-03 0.858E-03


 OPERATOR DM      FOR CENTER  0  COORDINATES:    0.000000    0.000000    0.000000


 **********************************************************************************************************************************
 DATASETS  * FILE   NREC   LENGTH (MB)   RECORD NAMES
              1      19       31.35       500      610      700      900      950      970     1000      129      960     1100   
                                          VAR    BASINP    GEOM    SYMINP    ZMAT    AOBASIS   BASIS     P2S    ABASIS      S 
                                         1400     1410     1200     1210     1080     1600     1650     1700     1800   
                                           T        V       H0       H01     AOSYM     SMH    MOLCAS    OPER     GRID   

              2       5        1.65       700     1000      520     1800     2101   
                                         GEOM     BASIS   MCVARS    GRID      RKS  

 PROGRAMS   *        TOTAL       INT   RKS-SCF       INT
 CPU TIMES  *        32.46      0.07     31.77      0.32
 REAL TIME  *        33.92 SEC
 DISK USED  *        38.03 MB (local),      304.27 MB (total)
 SF USED    *         0.58 MB
 GA USED    *         0.00 MB       (max)       0.00 MB       (current)
 **********************************************************************************************************************************


 Program * Restricted Kohn-Sham

 Density functional group PBE=PBEX+PBEC
 Functional: PBEX(Automatically generated (new) PBEX)                          Gradient terms: 1
 Functional: PBEC(Automatically generated (new) PBEC)                          Gradient terms: 1

 Functional: PBEX                   Factor:  1.0000
 Functional: PBEC                   Factor:  1.0000

 Radial grid threshold:                     5.0D-09
 Accuracy mode for quadrature:              DEFAULT
 Global grid threshold:                     1.0D-08
 Angular grid threshold:                    1.0D-09
 Fac_Neighbour:                                 4.0
 Size adjustment in partitioning scheme:   TREUTLER
 Skip grid points with weights lower than:  1.0D-20
 Grid orientation:                           T

 Generated new metagrid on record  1800.2 with target accuracy 1.0D-08 and 80140 points in CPU time    0.2
 Computed new grid on record 1800.1 in CPU time    0.3

 DFT orbital screening threshold (tolorb):   1.0D-09


 Integral-direct calculation

 Orbital guess generated from atomic densities. Full valence occupancy:   15

 Initial occupancy:  11

 NELEC=   22   SYM=1   MS2= 0   THRE=1.0D-09   THRD=1.0D-04   THRG=1.0D-04  HFMA2=F  DIIS_START=2   DIIS_MAX=10   DIIS_INCORE=F

 Level shifts:    0.00 (CLOSED)    0.00 (OPEN)    0.30 (GAP_MIN)

 ITER           ETOT              DE          GRAD        DDIFF     DIIS  NEXP   TIME(IT)  TIME(TOT)  DIAG
   1     -188.40495839    -188.40495839     0.00D+00     0.35D-01     0     0       3.55      4.08    start
   2     -188.22930877       0.17564962     0.59D-02     0.84D-02     1     0       3.41      7.49    diag
   3     -188.47048081      -0.24117205     0.11D-01     0.59D-02     2     0       3.36     10.85    diag
   4     -188.47274900      -0.00226819     0.97D-03     0.73D-03     3     0       3.19     14.04    diag
   5     -188.47280226      -0.00005325     0.15D-03     0.84D-04     4     0       3.06     17.10    diag
   6     -188.47280321      -0.00000095     0.33D-04     0.21D-04     5     0       2.82     19.92    diag
   7     -188.47280441      -0.00000120     0.24D-04     0.13D-04     6     0       2.69     22.61    diag
   8     -188.47280446      -0.00000005     0.49D-05     0.22D-05     7     0       2.44     25.05    fixocc
   9     -188.47280446       0.00000000     0.19D-06     0.13D-06     8     0       1.97     27.02    diag
  10     -188.47280446      -0.00000000     0.18D-07     0.29D-07     0     0       1.57     28.59    diag/orth

 Final occupancy:  11

 !RKS STATE 1.1 Energy               -188.472804464470
  RKS One-electron energy            -371.915681217071
  RKS Two-electron energy             147.896362870368
  RKS Kinetic energy                  187.451095216911
  RKS Nuclear energy                   57.882007652906
  RKS Virial quotient                  -1.005450537626
 Density functional                   -22.33549377     PBEX=-21.59692352 PBEC= -0.73857025

 !RKS STATE 1.1 Dipole moment           0.00000000     0.00105885    -0.00000000
 Dipole moment /Debye                   0.00000000     0.00269133    -0.00000000

 Orbital energies:

           1.1          2.1          3.1          4.1          5.1          6.1          7.1          8.1          9.1         10.1
    -18.837943   -18.837905   -10.064244    -1.070146    -1.033237    -0.508862    -0.466552    -0.465914    -0.465914    -0.333634

          11.1         12.1         13.1
     -0.333634    -0.033969    -0.017315


 HOMO     11.1    -0.333634 =      -9.0786eV
 LUMO     12.1    -0.033969 =      -0.9243eV
 LUMO-HOMO         0.299665 =       8.1543eV

 Orbitals saved in record  2201.2


 **********************************************************************************************************************************
 DATASETS  * FILE   NREC   LENGTH (MB)   RECORD NAMES
              1      19       31.35       500      610      700      900      950      970     1000      129      960     1100   
                                          VAR    BASINP    GEOM    SYMINP    ZMAT    AOBASIS   BASIS     P2S    ABASIS      S 
                                         1400     1410     1200     1210     1080     1600     1650     1700     1800   
                                           T        V       H0       H01     AOSYM     SMH    MOLCAS    OPER     GRID   

              2       6        3.79       700     1000      520     1800     2101     2201   
                                         GEOM     BASIS   MCVARS    GRID      RKS      RKS  

              4       2        0.58      8000     8001   

 PROGRAMS   *        TOTAL   RKS-SCF       INT   RKS-SCF       INT
 CPU TIMES  *        61.37     28.91      0.07     31.77      0.32
 REAL TIME  *        62.94 SEC
 DISK USED  *        40.18 MB (local),      321.41 MB (total)
 SF USED    *         3.03 MB
 GA USED    *         0.00 MB       (max)       0.00 MB       (current)
 **********************************************************************************************************************************
 SETTING EA_PBE         =      -188.47280446  AU                              

 Dummy atoms: C1  O1  O4


 Recomputing one-electron integrals since nuclear charges changed


 PROGRAM * SEWARD (Integral evaluation for generally contracted gaussian basis sets)     Author: Roland Lindh, 1990

 Geometry written to block  1 of record 700


 Point group  C1  



 ATOMIC COORDINATES

 NR  ATOM    CHARGE       X              Y              Z

   1  C1      0.00    0.000000000    0.107687933    0.000000000
   2  O1      0.00    0.000000000    2.319083238    0.000000000
   3  O2      8.00    0.000000000    7.421343775    0.000000000
   4  C2      6.00    0.000000000    9.632739081    0.000000000
   5  O3      8.00    0.000000000   11.844134386    0.000000000
   6  O4      0.00    0.000000000   -2.103707373    0.000000000

 Bond lengths in Bohr (Angstrom)

 1-2  2.211395306  1-6  2.211395306  3-4  2.211395306  4-5  2.211395306
     ( 1.170220000)     ( 1.170220000)     ( 1.170220000)     ( 1.170220000)

 Bond angles

  2-1-6  180.00000000   3-4-5  179.99999879

 NUCLEAR CHARGE:                   22
 NUMBER OF PRIMITIVE AOS:         402
 NUMBER OF SYMMETRY AOS:          348
 NUMBER OF CONTRACTIONS:          276   (  276A   )
 NUMBER OF INNER CORE ORBITALS:     0   (    0A   )
 NUMBER OF OUTER CORE ORBITALS:     3   (    3A   )
 NUMBER OF VALENCE ORBITALS:       12   (   12A   )

 MOLECULE CHANGED: INITIALIZING OCCUPATION AND DUMP RECORDS


 NUCLEAR REPULSION ENERGY   57.88200765

 EXTRA SYMMETRY OF AOS IN SYMMETRY 1:   1 1 1 1 1 2 1 3 2 1   3 2 1 3 2 1 3 1 2 4   1 3 1 2 4 1 3 1 2 4   1 3 2 1 3 2 4 1 3 2
                                        1 3 2 4 1 3 1 1 1 1   1 2 1 3 2 1 3 2 1 3   2 1 3 1 2 4 1 3 1 2   4 1 3 1 2 4 1 3 2 1
                                        3 2 4 1 3 2 1 3 2 4   1 3 1 1 1 1 1 2 1 3   2 1 3 2 1 3 2 1 3 1   2 4 1 3 1 2 4 1 3 1
                                        2 4 1 3 2 1 3 2 4 1   3 2 1 3 2 4 1 3 1 1   1 1 1 2 1 3 2 1 3 2   1 3 2 1 3 1 2 4 1 3
                                        1 2 4 1 3 1 2 4 1 3   2 1 3 2 4 1 3 2 1 3   2 4 1 3 1 1 1 1 1 2   1 3 2 1 3 2 1 3 2 1
                                        3 1 2 4 1 3 1 2 4 1   3 1 2 4 1 3 2 1 3 2   4 1 3 2 1 3 2 4 1 3   1 1 1 1 1 2 1 3 2 1
                                        3 2 1 3 2 1 3 1 2 4   1 3 1 2 4 1 3 1 2 4   1 3 2 1 3 2 4 1 3 2   1 3 2 4 1 3

 Eigenvalues of metric

         1 0.566E-04 0.203E-03 0.234E-03 0.370E-03 0.426E-03 0.620E-03 0.714E-03 0.858E-03


 OPERATOR DM      FOR CENTER  0  COORDINATES:    0.000000    0.000000    0.000000


 **********************************************************************************************************************************
 DATASETS  * FILE   NREC   LENGTH (MB)   RECORD NAMES
              1      19       31.35       500      610      700      900      950      970     1000      129      960     1100   
                                          VAR    BASINP    GEOM    SYMINP    ZMAT    AOBASIS   BASIS     P2S    ABASIS      S 
                                         1400     1410     1200     1210     1080     1600     1650     1700     1800   
                                           T        V       H0       H01     AOSYM     SMH    MOLCAS    OPER     GRID   

              2       6        3.79       700     1000      520     1800     2101     2201   
                                         GEOM     BASIS   MCVARS    GRID      RKS      RKS  

 PROGRAMS   *        TOTAL       INT   RKS-SCF       INT   RKS-SCF       INT
 CPU TIMES  *        61.46      0.08     28.91      0.07     31.77      0.32
 REAL TIME  *        63.11 SEC
 DISK USED  *        40.18 MB (local),      321.41 MB (total)
 SF USED    *         3.03 MB
 GA USED    *         0.00 MB       (max)       0.00 MB       (current)
 **********************************************************************************************************************************


 Program * Restricted Kohn-Sham

 Density functional group PBE=PBEX+PBEC
 Functional: PBEX(Automatically generated (new) PBEX)                          Gradient terms: 1
 Functional: PBEC(Automatically generated (new) PBEC)                          Gradient terms: 1

 Functional: PBEX                   Factor:  1.0000
 Functional: PBEC                   Factor:  1.0000

 Radial grid threshold:                     5.0D-09
 Accuracy mode for quadrature:              DEFAULT
 Global grid threshold:                     1.0D-08
 Angular grid threshold:                    1.0D-09
 Fac_Neighbour:                                 4.0
 Size adjustment in partitioning scheme:   TREUTLER
 Skip grid points with weights lower than:  1.0D-20
 Grid orientation:                           T


 DFT orbital screening threshold (tolorb):   1.0D-09


 Integral-direct calculation

 Orbital guess generated from atomic densities. Full valence occupancy:   15

 Initial occupancy:  11

 NELEC=   22   SYM=1   MS2= 0   THRE=1.0D-09   THRD=1.0D-04   THRG=1.0D-04  HFMA2=F  DIIS_START=2   DIIS_MAX=10   DIIS_INCORE=F

 Level shifts:    0.00 (CLOSED)    0.00 (OPEN)    0.30 (GAP_MIN)

 ITER           ETOT              DE          GRAD        DDIFF     DIIS  NEXP   TIME(IT)  TIME(TOT)  DIAG
   1     -188.40495839    -188.40495839     0.00D+00     0.35D-01     0     0       3.55      4.05    start
   2     -188.22930878       0.17564961     0.59D-02     0.84D-02     1     0       3.42      7.47    diag
   3     -188.47048081      -0.24117203     0.11D-01     0.59D-02     2     0       3.34     10.81    diag
   4     -188.47274900      -0.00226819     0.97D-03     0.73D-03     3     0       3.22     14.03    diag
   5     -188.47280225      -0.00005325     0.15D-03     0.84D-04     4     0       3.05     17.08    diag
   6     -188.47280321      -0.00000096     0.33D-04     0.21D-04     5     0       2.83     19.91    diag
   7     -188.47280441      -0.00000120     0.24D-04     0.13D-04     6     0       2.67     22.58    diag
   8     -188.47280446      -0.00000005     0.49D-05     0.22D-05     7     0       2.46     25.04    fixocc
   9     -188.47280446       0.00000000     0.19D-06     0.13D-06     8     0       1.96     27.00    diag
  10     -188.47280446      -0.00000000     0.18D-07     0.29D-07     0     0       1.57     28.57    diag/orth

 Final occupancy:  11

 !RKS STATE 1.1 Energy               -188.472804462420
  RKS One-electron energy            -371.915681199700
  RKS Two-electron energy             147.896362851252
  RKS Kinetic energy                  187.451095218489
  RKS Nuclear energy                   57.882007652906
  RKS Virial quotient                  -1.005450537607
 Density functional                   -22.33549377     PBEX=-21.59692352 PBEC= -0.73857025

 !RKS STATE 1.1 Dipole moment          -0.00000000    -0.00105884    -0.00000000
 Dipole moment /Debye                  -0.00000000    -0.00269131    -0.00000000

 Orbital energies:

           1.1          2.1          3.1          4.1          5.1          6.1          7.1          8.1          9.1         10.1
    -18.837943   -18.837905   -10.064244    -1.070146    -1.033237    -0.508862    -0.466552    -0.465914    -0.465914    -0.333634

          11.1         12.1         13.1
     -0.333634    -0.033969    -0.017315


 HOMO     11.1    -0.333634 =      -9.0786eV
 LUMO     12.1    -0.033969 =      -0.9243eV
 LUMO-HOMO         0.299665 =       8.1543eV

 Orbitals saved in record  2301.2


 **********************************************************************************************************************************
 DATASETS  * FILE   NREC   LENGTH (MB)   RECORD NAMES
              1      19       31.35       500      610      700      900      950      970     1000      129      960     1100   
                                          VAR    BASINP    GEOM    SYMINP    ZMAT    AOBASIS   BASIS     P2S    ABASIS      S 
                                         1400     1410     1200     1210     1080     1600     1650     1700     1800   
                                           T        V       H0       H01     AOSYM     SMH    MOLCAS    OPER     GRID   

              2       7        5.93       700     1000      520     1800     2101     2201     2301   
                                         GEOM     BASIS   MCVARS    GRID      RKS      RKS      RKS  

              4       2        0.58      8000     8001   

 PROGRAMS   *        TOTAL   RKS-SCF       INT   RKS-SCF       INT   RKS-SCF       INT
 CPU TIMES  *        90.06     28.60      0.08     28.91      0.07     31.77      0.32
 REAL TIME  *        91.83 SEC
 DISK USED  *        42.32 MB (local),      338.55 MB (total)
 SF USED    *         3.03 MB
 GA USED    *         0.00 MB       (max)       0.00 MB       (current)
 **********************************************************************************************************************************
 SETTING EB_PBE         =      -188.47280446  AU                              
 SETTING E_AB_INT       =         0.00192540  AU                              

 *** results in hartree
 E_AB_INT         =         0.00192540 AU

 RPBE/aug-cc-pVTZ energy=   -188.472804462420

         RKS-SCF         RKS-SCF         RKS-SCF
   -188.47280446   -188.47280446   -376.94368353
 **********************************************************************************************************************************
 Molpro calculation terminated
