 vasp.6.1.2 22Jul20 (build Jan  6 2021 09:55:43) gamma-only                      
 executed on             LinuxPGI date 2021.03.22  09:01:30
 running on   16 total cores
 distrk:  each k-point on   16 cores,    1 groups
 distr:  one band on NCORE=   8 cores,    2 groups


--------------------------------------------------------------------------------------------------------


 INCAR:
 POTCAR:    PAW_PBE H_h 06Feb2004                 
 POTCAR:    PAW_PBE C_h 06Feb2004                 
 POTCAR:    PAW_PBE O_h 06Feb2004                 
 POTCAR:    PAW_PBE H_h 06Feb2004                 
   VRHFIN =H: ultrasoft test                                                                        
   LEXCH  = PE                                                                                      
   EATOM  =    12.4884 eV,    0.9179 Ry                                                             
                                                                                                    
   TITEL  = PAW_PBE H_h 06Feb2004                                                                   
   LULTRA =        F    use ultrasoft PP ?                                                          
   IUNSCR =        0    unscreen: 0-lin 1-nonlin 2-no                                               
   RPACOR =    0.000    partial core radius                                                         
   POMASS =    1.000; ZVAL   =    1.000    mass and valenz                                          
   RCORE  =    0.800    outmost cutoff radius                                                       
   RWIGS  =    0.700; RWIGS  =    0.370    wigner-seitz radius (au A)                               
   ENMAX  =  700.000; ENMIN  =  350.000 eV                                                          
   RCLOC  =    0.701    cutoff for local pot                                                        
   LCOR   =        T    correct aug charges                                                         
   LPAW   =        T    paw PP                                                                      
   EAUG   = 1000.000                                                                                
   RMAX   =    0.819    core radius for proj-oper                                                   
   RAUG   =    1.000    factor for augmentation sphere                                              
   RDEP   =    0.817    radius for radial grids                                                     
   RDEPT  =    0.817    core radius for aug-charge                                                  
                                                                                                    
   Atomic configuration                                                                             
    2 entries                                                                                       
     n  l   j            E        occ.                                                              
     1  0  0.50        -6.4927   1.0000                                                             
     2  1  0.50        -3.4015   0.0000                                                             
   Description                                                                                      
     l       E           TYP  RCUT    TYP  RCUT                                                     
     0     -6.4927493     23  0.800                                                                 
     0      6.8029130     23  0.800                                                                 
     1     -6.8029130     23  0.800                                                                 
  local pseudopotential read in
  atomic valenz-charges read in
  non local Contribution for L=            0  read in
    real space projection operators read in
  non local Contribution for L=            0  read in
    real space projection operators read in
  non local Contribution for L=            1  read in
    real space projection operators read in
    PAW grid and wavefunctions read in
 
   number of l-projection  operators is LMAX  =            3
   number of lm-projection operators is LMMAX =            5
 
 POTCAR:    PAW_PBE C_h 06Feb2004                 
   VRHFIN =C: s2p2                                                                                  
   LEXCH  = PE                                                                                      
   EATOM  =   147.1560 eV,   10.8157 Ry                                                             
                                                                                                    
   TITEL  = PAW_PBE C_h 06Feb2004                                                                   
   LULTRA =        F    use ultrasoft PP ?                                                          
   IUNSCR =        1    unscreen: 0-lin 1-nonlin 2-no                                               
   RPACOR =    0.800    partial core radius                                                         
   POMASS =   12.011; ZVAL   =    4.000    mass and valenz                                          
   RCORE  =    1.100    outmost cutoff radius                                                       
   RWIGS  =    1.630; RWIGS  =    0.863    wigner-seitz radius (au A)                               
   ENMAX  =  700.000; ENMIN  =  500.000 eV                                                          
   ICORE  =        2    local potential                                                             
   LCOR   =        T    correct aug charges                                                         
   LPAW   =        T    paw PP                                                                      
   EAUG   =  946.768                                                                                
   DEXC   =    0.000                                                                                
   RMAX   =    1.128    core radius for proj-oper                                                   
   RAUG   =    1.300    factor for augmentation sphere                                              
   RDEP   =    1.162    radius for radial grids                                                     
   RDEPT  =    1.088    core radius for aug-charge                                                  
                                                                                                    
   Atomic configuration                                                                             
    4 entries                                                                                       
     n  l   j            E        occ.                                                              
     1  0  0.50      -273.3789   2.0000                                                             
     2  0  0.50       -13.7508   2.0000                                                             
     2  1  0.50        -5.2854   2.0000                                                             
     3  2  1.50        -5.4423   0.0000                                                             
   Description                                                                                      
     l       E           TYP  RCUT    TYP  RCUT                                                     
     0    -13.7508458     23  1.100                                                                 
     0     -8.2022199     23  1.100                                                                 
     1     -5.2854383     23  1.100                                                                 
     1      1.1560700     23  1.100                                                                 
     2     -5.4423304      7  1.100                                                                 
  local pseudopotential read in
  partial core-charges read in
  partial kinetic energy density read in
  atomic valenz-charges read in
  non local Contribution for L=            0  read in
    real space projection operators read in
  non local Contribution for L=            0  read in
    real space projection operators read in
  non local Contribution for L=            1  read in
    real space projection operators read in
  non local Contribution for L=            1  read in
    real space projection operators read in
    PAW grid and wavefunctions read in
 
   number of l-projection  operators is LMAX  =            4
   number of lm-projection operators is LMMAX =            8
 
 POTCAR:    PAW_PBE O_h 06Feb2004                 
   VRHFIN =O: s2p4                                                                                  
   LEXCH  = PE                                                                                      
   EATOM  =   432.3788 eV,   31.7789 Ry                                                             
                                                                                                    
   TITEL  = PAW_PBE O_h 06Feb2004                                                                   
   LULTRA =        F    use ultrasoft PP ?                                                          
   IUNSCR =        1    unscreen: 0-lin 1-nonlin 2-no                                               
   RPACOR =    0.800    partial core radius                                                         
   POMASS =   16.000; ZVAL   =    6.000    mass and valenz                                          
   RCORE  =    1.100    outmost cutoff radius                                                       
   RWIGS  =    1.400; RWIGS  =    0.741    wigner-seitz radius (au A)                               
   ENMAX  =  700.000; ENMIN  =  500.000 eV                                                          
   ICORE  =        2    local potential                                                             
   LCOR   =        T    correct aug charges                                                         
   LPAW   =        T    paw PP                                                                      
   EAUG   =  888.804                                                                                
   DEXC   =    0.000                                                                                
   RMAX   =    1.128    core radius for proj-oper                                                   
   RAUG   =    1.300    factor for augmentation sphere                                              
   RDEP   =    1.125    radius for radial grids                                                     
   RDEPT  =    1.088    core radius for aug-charge                                                  
                                                                                                    
   Atomic configuration                                                                             
    4 entries                                                                                       
     n  l   j            E        occ.                                                              
     1  0  0.50      -514.6923   2.0000                                                             
     2  0  0.50       -23.9615   2.0000                                                             
     2  1  0.50        -9.0305   4.0000                                                             
     3  2  1.50        -9.5241   0.0000                                                             
   Description                                                                                      
     l       E           TYP  RCUT    TYP  RCUT                                                     
     0    -23.9615319     23  1.100                                                                 
     0    -25.3221145     23  1.100                                                                 
     1     -9.0304911     23  1.100                                                                 
     1     -5.4802209     23  1.100                                                                 
     2     -9.5240782      7  1.100                                                                 
  local pseudopotential read in
  partial core-charges read in
  partial kinetic energy density read in
  atomic valenz-charges read in
  non local Contribution for L=            0  read in
    real space projection operators read in
  non local Contribution for L=            0  read in
    real space projection operators read in
  non local Contribution for L=            1  read in
    real space projection operators read in
  non local Contribution for L=            1  read in
    real space projection operators read in
    PAW grid and wavefunctions read in
 
   number of l-projection  operators is LMAX  =            4
   number of lm-projection operators is LMMAX =            8
 
  PAW_PBE H_h 06Feb2004                 :
 energy of atom  1       EATOM=  -12.4884
 kinetic energy error for atom=    0.0001 (will be added to EATOM!!)
  PAW_PBE C_h 06Feb2004                 :
 energy of atom  2       EATOM= -147.1560
 kinetic energy error for atom=    0.0004 (will be added to EATOM!!)
  PAW_PBE O_h 06Feb2004                 :
 energy of atom  3       EATOM= -432.3788
 kinetic energy error for atom=    0.0016 (will be added to EATOM!!)
 
 
 POSCAR:  H  C  O
  positions in cartesian coordinates
  No initial velocities read in
 exchange correlation table for  LEXCH =        8
   RHO(1)=    0.500       N(1)  =     2000
   RHO(2)=  100.500       N(2)  =     4000
 


--------------------------------------------------------------------------------------------------------


 ion  position               nearest neighbor table
   1  0.001  0.050  0.973-   4 0.96
   2  0.000  0.084  1.000-   4 0.96
   3  0.001  0.165  1.000-   5 1.14
   4  0.000  0.056  0.000-   2 0.96   1 0.96
   5  0.000  0.133  1.000-   3 1.14
 
  LATTYP: Found a simple cubic cell.
 ALAT       =    35.0000000000
  
  Lattice vectors:
  
 A1 = (  35.0000000000,   0.0000000000,   0.0000000000)
 A2 = (   0.0000000000,  35.0000000000,   0.0000000000)
 A3 = (   0.0000000000,   0.0000000000,  35.0000000000)


Analysis of symmetry for initial positions (statically):
=====================================================================
 Subroutine PRICEL returns:
 Original cell was already a primitive cell.
 

 Routine SETGRP: Setting up the symmetry group for a 
 simple cubic supercell.


 Subroutine GETGRP returns: Found  1 space group operations
 (whereof  1 operations were pure point group operations)
 out of a pool of 48 trial point group operations.


The static configuration has the point symmetry C_1 .


Analysis of symmetry for dynamics (positions and initial velocities):
=====================================================================
 Subroutine PRICEL returns:
 Original cell was already a primitive cell.
 

 Routine SETGRP: Setting up the symmetry group for a 
 simple cubic supercell.


 Subroutine GETGRP returns: Found  1 space group operations
 (whereof  1 operations were pure point group operations)
 out of a pool of 48 trial point group operations.


The dynamic configuration has the point symmetry C_1 .


 Subroutine INISYM returns: Found  1 space group operations
 (whereof  1 operations are pure point group operations),
 and found     1 'primitive' translations


----------------------------------------------------------------------------------------

                                     Primitive cell                                     

  volume of cell :   42875.0000

  direct lattice vectors                    reciprocal lattice vectors
    35.000000000  0.000000000  0.000000000     0.028571429  0.000000000  0.000000000
     0.000000000 35.000000000  0.000000000     0.000000000  0.028571429  0.000000000
     0.000000000  0.000000000 35.000000000     0.000000000  0.000000000  0.028571429

  length of vectors
    35.000000000 35.000000000 35.000000000     0.028571429  0.028571429  0.028571429

  position of ions in fractional coordinates (direct lattice)
     0.000785426  0.049745327  0.973385225
     0.000340417  0.083957172  0.999957468
     0.000845402  0.165063906  0.999904630
     0.000000000  0.056491600  0.000000000
     0.000228949  0.132528380  0.999969134

  ion indices of the primitive-cell ions
   primitive index   ion index
                 1           1
                 2           2
                 3           3
                 4           4
                 5           5

----------------------------------------------------------------------------------------

 
 
 KPOINTS: automatic mesh                          

Automatic generation of k-mesh.
Space group operators:
 irot       det(A)        alpha          n_x          n_y          n_z        tau_x        tau_y        tau_z
    1     1.000000     0.000000     1.000000     0.000000     0.000000     0.000000     0.000000     0.000000
 
 Subroutine IBZKPT returns following result:
 ===========================================
 
 Found      1 irreducible k-points:
 
 Following reciprocal coordinates:
            Coordinates               Weight
  0.000000  0.000000  0.000000      1.000000
 
 Following cartesian coordinates:
            Coordinates               Weight
  0.000000  0.000000  0.000000      1.000000
 


--------------------------------------------------------------------------------------------------------




 Dimension of arrays:
   k-points           NKPTS =      1   k-points in BZ     NKDIM =      1   number of bands    NBANDS=     14
   number of dos      NEDOS =    301   number of ions     NIONS =      5
   non local maximal  LDIM  =      4   non local SUM 2l+1 LMDIM =      8
   total plane-waves  NPLWV = ******
   max r-space proj   IRMAX =      1   max aug-charges    IRDMAX=  23028
   dimension x,y,z NGX =   512 NGY =  512 NGZ =  512
   dimension x,y,z NGXF=  1024 NGYF= 1024 NGZF= 1024
   support grid    NGXF=  1024 NGYF= 1024 NGZF= 1024
   ions per type =               2   1   2
   NGX,Y,Z   is equivalent  to a cutoff of  24.32, 24.32, 24.32 a.u.
   NGXF,Y,Z  is equivalent  to a cutoff of  48.64, 48.64, 48.64 a.u.

 SYSTEM =  C                                       
 POSCAR =   H  C  O                                

 Startparameter for this run:
   NWRITE =      2    write-flag & timer
   PREC   = acc       normal or accurate (medium, high low for compatibility)
   ISTART =      0    job   : 0-new  1-cont  2-samecut
   ICHARG =      2    charge: 1-file 2-atom 10-const
   ISPIN  =      1    spin polarized calculation?
   LNONCOLLINEAR =      F non collinear calculations
   LSORBIT =      F    spin-orbit coupling
   INIWAV =      1    electr: 0-lowe 1-rand  2-diag
   LASPH  =      T    aspherical Exc in radial PAW
   METAGGA=      F    non-selfconsistent MetaGGA calc.

 Electronic Relaxation 1
   ENCUT  = 2000.0 eV 147.00 Ry   12.12 a.u. 127.63127.63127.63*2*pi/ulx,y,z
   ENINI  = 2000.0     initial cutoff
   ENAUG  = 1000.0 eV  augmentation charge cutoff
   NELM   =     60;   NELMIN=  2; NELMDL= -5     # of ELM steps 
   EDIFF  = 0.1E-06   stopping-criterion for ELM
   LREAL  =      F    real-space projection
   NLSPLINE    = F    spline interpolate recip. space projectors
   LCOMPAT=      F    compatible to vasp.4.4
   GGA_COMPAT  = T    GGA compatible to vasp.4.4-vasp.4.6
   LMAXPAW     = -100 max onsite density
   LMAXMIX     =    2 max onsite mixed and CHGCAR
   VOSKOWN=      0    Vosko Wilk Nusair interpolation
   ROPT   =    0.00000   0.00000   0.00000
 Ionic relaxation
   EDIFFG = 0.1E-05   stopping-criterion for IOM
   NSW    =      0    number of steps for IOM
   NBLOCK =      1;   KBLOCK =      1    inner block; outer block 
   IBRION =     -1    ionic relax: 0-MD 1-quasi-New 2-CG
   NFREE  =      0    steps in history (QN), initial steepest desc. (CG)
   ISIF   =      2    stress and relaxation
   IWAVPR =     10    prediction:  0-non 1-charg 2-wave 3-comb
   ISYM   =      2    0-nonsym 1-usesym 2-fastsym
   LCORR  =      T    Harris-Foulkes like correction to forces

   POTIM  = 0.5000    time-step for ionic-motion
   TEIN   =    0.0    initial temperature
   TEBEG  =    0.0;   TEEND  =   0.0 temperature during run
   SMASS  =  -3.00    Nose mass-parameter (am)
   estimated Nose-frequenzy (Omega)   =  0.10E-29 period in steps = 0.13E+47 mass=  -0.280E-25a.u.
   SCALEE = 1.0000    scale energy and forces
   NPACO  =    256;   APACO  = 16.0  distance and # of slots for P.C.
   PSTRESS=    0.0 pullay stress

  Mass of Ions in am
   POMASS =   1.00 12.01 16.00
  Ionic Valenz
   ZVAL   =   1.00  4.00  6.00
  Atomic Wigner-Seitz radii
   RWIGS  =  -1.00 -1.00 -1.00
  virtual crystal weights 
   VCA    =   1.00  1.00  1.00
   NELECT =      18.0000    total number of electrons
   NUPDOWN=      -1.0000    fix difference up-down

 DOS related values:
   EMIN   =  10.00;   EMAX   =-10.00  energy-range for DOS
   EFERMI =   0.00
   ISMEAR =     0;   SIGMA  =   0.01  broadening in eV -4-tet -1-fermi 0-gaus

 Electronic relaxation 2 (details)
   IALGO  =     38    algorithm
   LDIAG  =      T    sub-space diagonalisation (order eigenvalues)
   LSUBROT=      F    optimize rotation matrix (better conditioning)
   TURBO    =      0    0=normal 1=particle mesh
   IRESTART =      0    0=no restart 2=restart with 2 vectors
   NREBOOT  =      0    no. of reboots
   NMIN     =      0    reboot dimension
   EREF     =   0.00    reference energy to select bands
   IMIX   =      4    mixing-type and parameters
     AMIX     =   0.40;   BMIX     =  1.00
     AMIX_MAG =   1.60;   BMIX_MAG =  1.00
     AMIN     =   0.10
     WC   =   100.;   INIMIX=   1;  MIXPRE=   1;  MAXMIX= -45

 Intra band minimization:
   WEIMIN = 0.0000     energy-eigenvalue tresh-hold
   EBREAK =  0.18E-08  absolut break condition
   DEPER  =   0.30     relativ break condition  

   TIME   =   0.40     timestep for ELM

  volume/ion in A,a.u.               =    8575.00     57866.96
  Fermi-wavevector in a.u.,A,eV,Ry     =   0.122583  0.231649  0.204450  0.015027
  Thomas-Fermi vector in A             =   0.746568
 
 Write flags
   LWAVE        =      T    write WAVECAR
   LDOWNSAMPLE  =      F    k-point downsampling of WAVECAR
   LCHARG       =      T    write CHGCAR
   LVTOT        =      F    write LOCPOT, total local potential
   LVHAR        =      F    write LOCPOT, Hartree potential only
   LELF         =      F    write electronic localiz. function (ELF)
   LORBIT       =      0    0 simple, 1 ext, 2 COOP (PROOUT), +10 PAW based schemes


 Dipole corrections
   LMONO  =      F    monopole corrections only (constant potential shift)
   LDIPOL =      F    correct potential (dipole corrections)
   IDIPOL =      4    1-x, 2-y, 3-z, 4-all directions 
   EPSILON=  1.0000000 bulk dielectric constant

 Exchange correlation treatment:
   GGA     =    --    GGA type
   LEXCH   =     8    internal setting for exchange type
   VOSKOWN=      0    Vosko Wilk Nusair interpolation
   LHFCALC =     F    Hartree Fock is set to
   LHFONE  =     F    Hartree Fock one center treatment
   AEXX    =    0.0000 exact exchange contribution

 Linear response parameters
   LEPSILON=     F    determine dielectric tensor
   LRPA    =     F    only Hartree local field effects (RPA)
   LNABLA  =     F    use nabla operator in PAW spheres
   LVEL    =     F    velocity operator in full k-point grid
   LINTERFAST=   F  fast interpolation
   KINTER  =     0    interpolate to denser k-point grid
   CSHIFT  =0.1000    complex shift for real part using Kramers Kronig
   OMEGAMAX=  -1.0    maximum frequency
   DEG_THRESHOLD= 0.2000000E-02 threshold for treating states as degnerate
   RTIME   =   -0.100 relaxation time in fs
  (WPLASMAI=    0.000 imaginary part of plasma frequency in eV, 0.658/RTIME)
   DFIELD  = 0.0000000 0.0000000 0.0000000 field for delta impulse in time
 
 Orbital magnetization related:
   ORBITALMAG=     F  switch on orbital magnetization
   LCHIMAG   =     F  perturbation theory with respect to B field
   DQ        =  0.001000  dq finite difference perturbation B field
   LLRAUG    =     F  two centre corrections for induced B field



--------------------------------------------------------------------------------------------------------


 Static calculation
 charge density and potential will be updated during run
 non-spin polarized calculation
 Variant of blocked Davidson
 Davidson routine will perform the subspace rotation
 perform sub-space diagonalisation
    after iterative eigenvector-optimisation
 modified Broyden-mixing scheme, WC =      100.0
 initial mixing is a Kerker type mixing with AMIX =  0.4000 and BMIX =      1.0000
 Hartree-type preconditioning will be used
 using additional bands             5
 reciprocal scheme for non local part
 use partial core corrections
 calculate Harris-corrections to forces 
   (improved forces if not selfconsistent)
 use gradient corrections 
 use of overlap-Matrix (Vanderbilt PP)
 Gauss-broadening in eV      SIGMA  =   0.01


--------------------------------------------------------------------------------------------------------


  energy-cutoff  :     2000.00
  volume of cell :    42875.00
      direct lattice vectors                 reciprocal lattice vectors
    35.000000000  0.000000000  0.000000000     0.028571429  0.000000000  0.000000000
     0.000000000 35.000000000  0.000000000     0.000000000  0.028571429  0.000000000
     0.000000000  0.000000000 35.000000000     0.000000000  0.000000000  0.028571429

  length of vectors
    35.000000000 35.000000000 35.000000000     0.028571429  0.028571429  0.028571429


 
 k-points in units of 2pi/SCALE and weight: automatic mesh                          
   0.00000000  0.00000000  0.00000000       1.000
 
 k-points in reciprocal lattice and weights: automatic mesh                          
   0.00000000  0.00000000  0.00000000       1.000
 
 position of ions in fractional coordinates (direct lattice) 
   0.00078543  0.04974533  0.97338523
   0.00034042  0.08395717  0.99995747
   0.00084540  0.16506391  0.99990463
   0.00000000  0.05649160  0.00000000
   0.00022895  0.13252838  0.99996913
 
 position of ions in cartesian coordinates  (Angst):
   0.02748992  1.74108643 34.06848289
   0.01191459  2.93850101 34.99851139
   0.02958908  5.77723670 34.99666206
   0.00000000  1.97720600  0.00000000
   0.00801323  4.63849332 34.99891970
 


--------------------------------------------------------------------------------------------------------


 use parallel FFT for orbitals z direction half grid
 k-point   1 :   0.0000 0.0000 0.0000  plane waves: 4353902

 maximum and minimum number of plane-waves per node :    544247   544233

 maximum number of plane-waves:   4353902
 maximum index in each direction: 
   IXMAX=  127   IYMAX=  127   IZMAX=  127
   IXMIN= -127   IYMIN= -127   IZMIN=    0


 parallel 3D FFT for wavefunctions:
    minimum data exchange during FFTs selected (reduces bandwidth)
 parallel 3D FFT for charge:
    minimum data exchange during FFTs selected (reduces bandwidth)


 total amount of memory used by VASP MPI-rank0  7814025. kBytes
=======================================================================

   base      :      30000. kBytes
   nonl-proj :     148031. kBytes
   fftplans  :    2602168. kBytes
   grid      :    4972871. kBytes
   one-center:          1. kBytes
   wavefun   :      60954. kBytes
 
     INWAV:  cpu time    0.0001: real time    0.0000
 Broyden mixing: mesh for mixing (old mesh)
   NGX =255   NGY =255   NGZ =255
  (NGX  =***   NGY  =***   NGZ  =***)
  gives a total of ****** points

 initial charge density was supplied:
 charge density of overlapping atoms calculated
 number of electron      18.0000000 magnetization 
 keeping initial charge density in first step


--------------------------------------------------------------------------------------------------------


 Maximum index for augmentation-charges          1258 (set IRDMAX)


--------------------------------------------------------------------------------------------------------


 First call to EWALD:  gamma=   0.051
 Maximum number of real-space cells 3x 3x 3
 Maximum number of reciprocal cells 3x 3x 3

    FEWALD:  cpu time    0.0010: real time    0.0010


--------------------------------------- Iteration      1(   1)  ---------------------------------------


    POTLOK:  cpu time   47.8114: real time   47.8727
    SETDIJ:  cpu time    0.0547: real time    0.0570
     EDDAV:  cpu time   24.0396: real time   24.0918
       DOS:  cpu time    0.0069: real time    0.0069
    --------------------------------------------
      LOOP:  cpu time   71.9126: real time   72.0285

 eigenvalue-minimisations  :    44
 total energy-change (2. order) : 0.1704730E+03  (-0.3730574E+03)
 number of electron      18.0000000 magnetization 
 augmentation part       18.0000000 magnetization 

 Free energy of the ion-electron system (eV)
  ---------------------------------------------------
  alpha Z        PSCENC =         0.02084913
  Ewald energy   TEWEN  =       703.29053079
  -Hartree energ DENC   =     -1516.00927202
  -exchange      EXHF   =         0.00000000
  -V(xc)+E(xc)   XCENC  =        62.43298124
  PAW double counting   =       810.18903546     -807.36841507
  entropy T*S    EENTRO =        -0.00000000
  eigenvalues    EBANDS =      -118.96932885
  atomic energy  EATOM  =      1036.88658833
  Solvation  Ediel_sol  =         0.00000000
  ---------------------------------------------------
  free energy    TOTEN  =       170.47296901 eV

  energy without entropy =      170.47296901  energy(sigma->0) =      170.47296901


--------------------------------------------------------------------------------------------------------




--------------------------------------- Iteration      1(   2)  ---------------------------------------


     EDDAV:  cpu time   24.2520: real time   24.2891
       DOS:  cpu time    0.0114: real time    0.0114
    --------------------------------------------
      LOOP:  cpu time   24.2634: real time   24.3004

 eigenvalue-minimisations  :    44
 total energy-change (2. order) :-0.1011897E+03  (-0.1009961E+03)
 number of electron      18.0000000 magnetization 
 augmentation part       18.0000000 magnetization 

 Free energy of the ion-electron system (eV)
  ---------------------------------------------------
  alpha Z        PSCENC =         0.02084913
  Ewald energy   TEWEN  =       703.29053079
  -Hartree energ DENC   =     -1516.00927202
  -exchange      EXHF   =         0.00000000
  -V(xc)+E(xc)   XCENC  =        62.43298124
  PAW double counting   =       810.18903546     -807.36841507
  entropy T*S    EENTRO =        -0.00412900
  eigenvalues    EBANDS =      -220.15493358
  atomic energy  EATOM  =      1036.88658833
  Solvation  Ediel_sol  =         0.00000000
  ---------------------------------------------------
  free energy    TOTEN  =        69.28323528 eV

  energy without entropy =       69.28736428  energy(sigma->0) =       69.28529978


--------------------------------------------------------------------------------------------------------




--------------------------------------- Iteration      1(   3)  ---------------------------------------


     EDDAV:  cpu time   25.7473: real time   25.7876
       DOS:  cpu time    0.0106: real time    0.0106
    --------------------------------------------
      LOOP:  cpu time   25.7580: real time   25.7982

 eigenvalue-minimisations  :    48
 total energy-change (2. order) :-0.5515882E+02  (-0.5254966E+02)
 number of electron      18.0000000 magnetization 
 augmentation part       18.0000000 magnetization 

 Free energy of the ion-electron system (eV)
  ---------------------------------------------------
  alpha Z        PSCENC =         0.02084913
  Ewald energy   TEWEN  =       703.29053079
  -Hartree energ DENC   =     -1516.00927202
  -exchange      EXHF   =         0.00000000
  -V(xc)+E(xc)   XCENC  =        62.43298124
  PAW double counting   =       810.18903546     -807.36841507
  entropy T*S    EENTRO =        -0.00000000
  eigenvalues    EBANDS =      -275.31788745
  atomic energy  EATOM  =      1036.88658833
  Solvation  Ediel_sol  =         0.00000000
  ---------------------------------------------------
  free energy    TOTEN  =        14.12441041 eV

  energy without entropy =       14.12441041  energy(sigma->0) =       14.12441041


--------------------------------------------------------------------------------------------------------




--------------------------------------- Iteration      1(   4)  ---------------------------------------


     EDDAV:  cpu time   17.6427: real time   17.6704
       DOS:  cpu time    0.0038: real time    0.0038
    --------------------------------------------
      LOOP:  cpu time   17.6465: real time   17.6742

 eigenvalue-minimisations  :    28
 total energy-change (2. order) :-0.3382982E+02  (-0.3378834E+02)
 number of electron      18.0000000 magnetization 
 augmentation part       18.0000000 magnetization 

 Free energy of the ion-electron system (eV)
  ---------------------------------------------------
  alpha Z        PSCENC =         0.02084913
  Ewald energy   TEWEN  =       703.29053079
  -Hartree energ DENC   =     -1516.00927202
  -exchange      EXHF   =         0.00000000
  -V(xc)+E(xc)   XCENC  =        62.43298124
  PAW double counting   =       810.18903546     -807.36841507
  entropy T*S    EENTRO =        -0.00000000
  eigenvalues    EBANDS =      -309.14770273
  atomic energy  EATOM  =      1036.88658833
  Solvation  Ediel_sol  =         0.00000000
  ---------------------------------------------------
  free energy    TOTEN  =       -19.70540487 eV

  energy without entropy =      -19.70540487  energy(sigma->0) =      -19.70540487


--------------------------------------------------------------------------------------------------------




--------------------------------------- Iteration      1(   5)  ---------------------------------------


     EDDAV:  cpu time   21.0095: real time   21.0424
       DOS:  cpu time    0.0099: real time    0.0099
    CHARGE:  cpu time    5.8126: real time    5.8205
    MIXING:  cpu time    0.9690: real time    0.9703
    --------------------------------------------
      LOOP:  cpu time   27.8011: real time   27.8432

 eigenvalue-minimisations  :    36
 total energy-change (2. order) :-0.1197909E+02  (-0.1197804E+02)
 number of electron      18.0000000 magnetization 
 augmentation part        0.1199900 magnetization 

 Broyden mixing:
  rms(total) = 0.29843E+01    rms(broyden)= 0.29843E+01
  rms(prec ) = 0.29929E+01
  weight for this iteration     100.00

 Free energy of the ion-electron system (eV)
  ---------------------------------------------------
  alpha Z        PSCENC =         0.02084913
  Ewald energy   TEWEN  =       703.29053079
  -Hartree energ DENC   =     -1516.00927202
  -exchange      EXHF   =         0.00000000
  -V(xc)+E(xc)   XCENC  =        62.43298124
  PAW double counting   =       810.18903546     -807.36841507
  entropy T*S    EENTRO =        -0.00000000
  eigenvalues    EBANDS =      -321.12679461
  atomic energy  EATOM  =      1036.88658833
  Solvation  Ediel_sol  =         0.00000000
  ---------------------------------------------------
  free energy    TOTEN  =       -31.68449675 eV

  energy without entropy =      -31.68449675  energy(sigma->0) =      -31.68449675


--------------------------------------------------------------------------------------------------------




--------------------------------------- Iteration      1(   6)  ---------------------------------------


    POTLOK:  cpu time   47.9021: real time   47.9624
    SETDIJ:  cpu time    0.0493: real time    0.0493
     EDDAV:  cpu time   22.4506: real time   22.4842
       DOS:  cpu time    0.0002: real time    0.0002
    CHARGE:  cpu time    5.3482: real time    5.3561
    MIXING:  cpu time    0.9866: real time    0.9920
    --------------------------------------------
      LOOP:  cpu time   76.7370: real time   76.8443

 eigenvalue-minimisations  :    40
 total energy-change (2. order) : 0.2239585E+01  (-0.9803425E+00)
 number of electron      18.0000000 magnetization 
 augmentation part        0.0733727 magnetization 

 Broyden mixing:
  rms(total) = 0.22335E+01    rms(broyden)= 0.22335E+01
  rms(prec ) = 0.22351E+01
  weight for this iteration     100.00

 eigenvalues of (default mixing * dielectric matrix)
  average eigenvalue GAMMA=   1.6661
  1.6661

 Free energy of the ion-electron system (eV)
  ---------------------------------------------------
  alpha Z        PSCENC =         0.02084913
  Ewald energy   TEWEN  =       703.29053079
  -Hartree energ DENC   =     -1550.08815586
  -exchange      EXHF   =         0.00000000
  -V(xc)+E(xc)   XCENC  =        64.35910941
  PAW double counting   =      2678.49978613    -2676.18226953
  entropy T*S    EENTRO =        -0.00000000
  eigenvalues    EBANDS =      -286.23135031
  atomic energy  EATOM  =      1036.88658833
  Solvation  Ediel_sol  =         0.00000000
  ---------------------------------------------------
  free energy    TOTEN  =       -29.44491191 eV

  energy without entropy =      -29.44491191  energy(sigma->0) =      -29.44491191


--------------------------------------------------------------------------------------------------------




--------------------------------------- Iteration      1(   7)  ---------------------------------------


    POTLOK:  cpu time   47.9033: real time   47.9629
    SETDIJ:  cpu time    0.0676: real time    0.0677
     EDDAV:  cpu time   25.7179: real time   25.7584
       DOS:  cpu time    0.0065: real time    0.0065
    CHARGE:  cpu time    5.6526: real time    5.6606
    MIXING:  cpu time    1.3590: real time    1.3605
    --------------------------------------------
      LOOP:  cpu time   80.7069: real time   80.8165

 eigenvalue-minimisations  :    48
 total energy-change (2. order) : 0.2809012E+00  (-0.1187067E+00)
 number of electron      18.0000000 magnetization 
 augmentation part        0.0626795 magnetization 

 Broyden mixing:
  rms(total) = 0.90054E+00    rms(broyden)= 0.90054E+00
  rms(prec ) = 0.90131E+00
  weight for this iteration     100.00

 eigenvalues of (default mixing * dielectric matrix)
  average eigenvalue GAMMA=   1.8400
  1.0079  2.6721

 Free energy of the ion-electron system (eV)
  ---------------------------------------------------
  alpha Z        PSCENC =         0.02084913
  Ewald energy   TEWEN  =       703.29053079
  -Hartree energ DENC   =     -1565.90621967
  -exchange      EXHF   =         0.00000000
  -V(xc)+E(xc)   XCENC  =        65.28995571
  PAW double counting   =      6958.86611626    -6956.65940700
  entropy T*S    EENTRO =        -0.00000000
  eigenvalues    EBANDS =      -270.95242424
  atomic energy  EATOM  =      1036.88658833
  Solvation  Ediel_sol  =         0.00000000
  ---------------------------------------------------
  free energy    TOTEN  =       -29.16401069 eV

  energy without entropy =      -29.16401069  energy(sigma->0) =      -29.16401069


--------------------------------------------------------------------------------------------------------




--------------------------------------- Iteration      1(   8)  ---------------------------------------


    POTLOK:  cpu time   48.0554: real time   48.1158
    SETDIJ:  cpu time    0.0624: real time    0.0624
     EDDAV:  cpu time   20.0446: real time   20.0749
       DOS:  cpu time    0.0002: real time    0.0002
    CHARGE:  cpu time    5.5714: real time    5.5793
    MIXING:  cpu time    1.0539: real time    1.0553
    --------------------------------------------
      LOOP:  cpu time   74.7878: real time   74.8880

 eigenvalue-minimisations  :    34
 total energy-change (2. order) : 0.6973435E-01  (-0.1640283E-01)
 number of electron      18.0000000 magnetization 
 augmentation part        0.0711242 magnetization 

 Broyden mixing:
  rms(total) = 0.25410E+00    rms(broyden)= 0.25410E+00
  rms(prec ) = 0.25490E+00
  weight for this iteration     100.00

 eigenvalues of (default mixing * dielectric matrix)
  average eigenvalue GAMMA=   1.4774
  2.3973  1.0174  1.0174

 Free energy of the ion-electron system (eV)
  ---------------------------------------------------
  alpha Z        PSCENC =         0.02084913
  Ewald energy   TEWEN  =       703.29053079
  -Hartree energ DENC   =     -1568.92311735
  -exchange      EXHF   =         0.00000000
  -V(xc)+E(xc)   XCENC  =        65.51448593
  PAW double counting   =     10606.53131765   -10604.27966129
  entropy T*S    EENTRO =        -0.00000000
  eigenvalues    EBANDS =      -268.13526952
  atomic energy  EATOM  =      1036.88658833
  Solvation  Ediel_sol  =         0.00000000
  ---------------------------------------------------
  free energy    TOTEN  =       -29.09427634 eV

  energy without entropy =      -29.09427634  energy(sigma->0) =      -29.09427634


--------------------------------------------------------------------------------------------------------




--------------------------------------- Iteration      1(   9)  ---------------------------------------


    POTLOK:  cpu time   48.1984: real time   48.2583
    SETDIJ:  cpu time    0.0593: real time    0.0593
     EDDAV:  cpu time   22.5526: real time   22.5874
       DOS:  cpu time    0.0062: real time    0.0062
    CHARGE:  cpu time    5.7119: real time    5.7200
    MIXING:  cpu time    1.0873: real time    1.0887
    --------------------------------------------
      LOOP:  cpu time   77.6157: real time   77.7199

 eigenvalue-minimisations  :    40
 total energy-change (2. order) : 0.1872791E-02  (-0.3192490E-02)
 number of electron      18.0000000 magnetization 
 augmentation part        0.0663562 magnetization 

 Broyden mixing:
  rms(total) = 0.16379E+00    rms(broyden)= 0.16379E+00
  rms(prec ) = 0.16433E+00
  weight for this iteration     100.00

 eigenvalues of (default mixing * dielectric matrix)
  average eigenvalue GAMMA=   1.2537
  2.4694  1.0956  1.0956  0.3542

 Free energy of the ion-electron system (eV)
  ---------------------------------------------------
  alpha Z        PSCENC =         0.02084913
  Ewald energy   TEWEN  =       703.29053079
  -Hartree energ DENC   =     -1569.09442226
  -exchange      EXHF   =         0.00000000
  -V(xc)+E(xc)   XCENC  =        65.49317699
  PAW double counting   =      9849.48010419    -9847.23916908
  entropy T*S    EENTRO =        -0.00000000
  eigenvalues    EBANDS =      -267.93006163
  atomic energy  EATOM  =      1036.88658833
  Solvation  Ediel_sol  =         0.00000000
  ---------------------------------------------------
  free energy    TOTEN  =       -29.09240355 eV

  energy without entropy =      -29.09240355  energy(sigma->0) =      -29.09240355


--------------------------------------------------------------------------------------------------------




--------------------------------------- Iteration      1(  10)  ---------------------------------------


    POTLOK:  cpu time   48.1796: real time   48.2421
    SETDIJ:  cpu time    0.0730: real time    0.0730
     EDDAV:  cpu time   19.9812: real time   20.0135
       DOS:  cpu time    0.0074: real time    0.0074
    CHARGE:  cpu time    5.6125: real time    5.6203
    MIXING:  cpu time    1.3758: real time    1.3774
    --------------------------------------------
      LOOP:  cpu time   75.2294: real time   75.3336

 eigenvalue-minimisations  :    34
 total energy-change (2. order) : 0.2787397E-03  (-0.5252040E-03)
 number of electron      18.0000000 magnetization 
 augmentation part        0.0660113 magnetization 

 Broyden mixing:
  rms(total) = 0.10452E+00    rms(broyden)= 0.10452E+00
  rms(prec ) = 0.10523E+00
  weight for this iteration     100.00

 eigenvalues of (default mixing * dielectric matrix)
  average eigenvalue GAMMA=   1.3006
  1.7882  1.7882  0.9087  0.9087  1.1092

 Free energy of the ion-electron system (eV)
  ---------------------------------------------------
  alpha Z        PSCENC =         0.02084913
  Ewald energy   TEWEN  =       703.29053079
  -Hartree energ DENC   =     -1569.42927294
  -exchange      EXHF   =         0.00000000
  -V(xc)+E(xc)   XCENC  =        65.50616006
  PAW double counting   =      9957.83233460    -9955.58989832
  entropy T*S    EENTRO =        -0.00000000
  eigenvalues    EBANDS =      -267.60941646
  atomic energy  EATOM  =      1036.88658833
  Solvation  Ediel_sol  =         0.00000000
  ---------------------------------------------------
  free energy    TOTEN  =       -29.09212481 eV

  energy without entropy =      -29.09212481  energy(sigma->0) =      -29.09212481


--------------------------------------------------------------------------------------------------------




--------------------------------------- Iteration      1(  11)  ---------------------------------------


    POTLOK:  cpu time   48.2109: real time   48.2717
    SETDIJ:  cpu time    0.0565: real time    0.0565
     EDDAV:  cpu time   17.6247: real time   17.6512
       DOS:  cpu time    0.0064: real time    0.0064
    CHARGE:  cpu time    5.8161: real time    5.8238
    MIXING:  cpu time    1.1916: real time    1.1932
    --------------------------------------------
      LOOP:  cpu time   72.9062: real time   73.0028

 eigenvalue-minimisations  :    28
 total energy-change (2. order) :-0.2331288E-02  (-0.6988745E-03)
 number of electron      18.0000000 magnetization 
 augmentation part        0.0678300 magnetization 

 Broyden mixing:
  rms(total) = 0.87347E-01    rms(broyden)= 0.87347E-01
  rms(prec ) = 0.87821E-01
  weight for this iteration     100.00

 eigenvalues of (default mixing * dielectric matrix)
  average eigenvalue GAMMA=   1.3898
  2.4592  2.4592  1.0477  1.0477  0.6626  0.6626

 Free energy of the ion-electron system (eV)
  ---------------------------------------------------
  alpha Z        PSCENC =         0.02084913
  Ewald energy   TEWEN  =       703.29053079
  -Hartree energ DENC   =     -1568.78506298
  -exchange      EXHF   =         0.00000000
  -V(xc)+E(xc)   XCENC  =        65.44997459
  PAW double counting   =      9644.30632997    -9642.05144086
  entropy T*S    EENTRO =        -0.00000000
  eigenvalues    EBANDS =      -268.21222506
  atomic energy  EATOM  =      1036.88658833
  Solvation  Ediel_sol  =         0.00000000
  ---------------------------------------------------
  free energy    TOTEN  =       -29.09445609 eV

  energy without entropy =      -29.09445609  energy(sigma->0) =      -29.09445609


--------------------------------------------------------------------------------------------------------




--------------------------------------- Iteration      1(  12)  ---------------------------------------


    POTLOK:  cpu time   48.2683: real time   48.3297
    SETDIJ:  cpu time    0.0603: real time    0.0603
     EDDAV:  cpu time   19.9851: real time   20.0153
       DOS:  cpu time    0.0065: real time    0.0065
    CHARGE:  cpu time    5.3892: real time    5.3968
    MIXING:  cpu time    1.7228: real time    1.7256
    --------------------------------------------
      LOOP:  cpu time   75.4321: real time   75.5342

 eigenvalue-minimisations  :    34
 total energy-change (2. order) :-0.1142889E-02  (-0.1666915E-03)
 number of electron      18.0000000 magnetization 
 augmentation part        0.0676694 magnetization 

 Broyden mixing:
  rms(total) = 0.36983E-01    rms(broyden)= 0.36983E-01
  rms(prec ) = 0.37507E-01
  weight for this iteration     100.00

 eigenvalues of (default mixing * dielectric matrix)
  average eigenvalue GAMMA=   1.3725
  2.5370  2.5370  1.2109  0.9975  0.8437  0.7408  0.7408

 Free energy of the ion-electron system (eV)
  ---------------------------------------------------
  alpha Z        PSCENC =         0.02084913
  Ewald energy   TEWEN  =       703.29053079
  -Hartree energ DENC   =     -1569.42726280
  -exchange      EXHF   =         0.00000000
  -V(xc)+E(xc)   XCENC  =        65.47010903
  PAW double counting   =      9747.47006552    -9745.21359754
  entropy T*S    EENTRO =        -0.00000000
  eigenvalues    EBANDS =      -267.59288145
  atomic energy  EATOM  =      1036.88658833
  Solvation  Ediel_sol  =         0.00000000
  ---------------------------------------------------
  free energy    TOTEN  =       -29.09559898 eV

  energy without entropy =      -29.09559898  energy(sigma->0) =      -29.09559898


--------------------------------------------------------------------------------------------------------




--------------------------------------- Iteration      1(  13)  ---------------------------------------


    POTLOK:  cpu time   48.2153: real time   48.2758
    SETDIJ:  cpu time    0.0486: real time    0.0486
     EDDAV:  cpu time   25.7634: real time   25.8026
       DOS:  cpu time    0.0059: real time    0.0059
    CHARGE:  cpu time    5.6857: real time    5.6937
    MIXING:  cpu time    1.6709: real time    1.6728
    --------------------------------------------
      LOOP:  cpu time   81.3898: real time   81.4993

 eigenvalue-minimisations  :    48
 total energy-change (2. order) :-0.1778287E-02  (-0.8285246E-04)
 number of electron      18.0000000 magnetization 
 augmentation part        0.0672707 magnetization 

 Broyden mixing:
  rms(total) = 0.22223E-01    rms(broyden)= 0.22223E-01
  rms(prec ) = 0.22761E-01
  weight for this iteration     100.00

 eigenvalues of (default mixing * dielectric matrix)
  average eigenvalue GAMMA=   1.3396
  2.6183  2.6183  1.1542  1.1542  0.8831  0.8831  0.8198  0.5857

 Free energy of the ion-electron system (eV)
  ---------------------------------------------------
  alpha Z        PSCENC =         0.02084913
  Ewald energy   TEWEN  =       703.29053079
  -Hartree energ DENC   =     -1569.80379223
  -exchange      EXHF   =         0.00000000
  -V(xc)+E(xc)   XCENC  =        65.48266231
  PAW double counting   =      9803.71010226    -9801.45456399
  entropy T*S    EENTRO =        -0.00000000
  eigenvalues    EBANDS =      -267.22975386
  atomic energy  EATOM  =      1036.88658833
  Solvation  Ediel_sol  =         0.00000000
  ---------------------------------------------------
  free energy    TOTEN  =       -29.09737727 eV

  energy without entropy =      -29.09737727  energy(sigma->0) =      -29.09737727


--------------------------------------------------------------------------------------------------------




--------------------------------------- Iteration      1(  14)  ---------------------------------------


    POTLOK:  cpu time   48.4333: real time   48.4936
    SETDIJ:  cpu time    0.0493: real time    0.0493
     EDDAV:  cpu time   17.5642: real time   17.5911
       DOS:  cpu time    0.0002: real time    0.0002
    CHARGE:  cpu time    5.4214: real time    5.4287
    MIXING:  cpu time    1.8174: real time    1.8195
    --------------------------------------------
      LOOP:  cpu time   73.2858: real time   73.3824

 eigenvalue-minimisations  :    28
 total energy-change (2. order) :-0.2403969E-02  (-0.2732563E-04)
 number of electron      18.0000000 magnetization 
 augmentation part        0.0672159 magnetization 

 Broyden mixing:
  rms(total) = 0.11664E-01    rms(broyden)= 0.11664E-01
  rms(prec ) = 0.12270E-01
  weight for this iteration     100.00

 eigenvalues of (default mixing * dielectric matrix)
  average eigenvalue GAMMA=   1.4983
  3.6774  2.1375  2.1375  1.2106  1.2106  0.8223  0.8223  0.7333  0.7333

 Free energy of the ion-electron system (eV)
  ---------------------------------------------------
  alpha Z        PSCENC =         0.02084913
  Ewald energy   TEWEN  =       703.29053079
  -Hartree energ DENC   =     -1569.98085463
  -exchange      EXHF   =         0.00000000
  -V(xc)+E(xc)   XCENC  =        65.48297528
  PAW double counting   =      9828.18555644    -9825.92899317
  entropy T*S    EENTRO =        -0.00000000
  eigenvalues    EBANDS =      -267.05643341
  atomic energy  EATOM  =      1036.88658833
  Solvation  Ediel_sol  =         0.00000000
  ---------------------------------------------------
  free energy    TOTEN  =       -29.09978124 eV

  energy without entropy =      -29.09978124  energy(sigma->0) =      -29.09978124


--------------------------------------------------------------------------------------------------------




--------------------------------------- Iteration      1(  15)  ---------------------------------------


    POTLOK:  cpu time   48.2773: real time   48.3386
    SETDIJ:  cpu time    0.0603: real time    0.0603
     EDDAV:  cpu time   23.3659: real time   23.4032
       DOS:  cpu time    0.0064: real time    0.0064
    CHARGE:  cpu time    5.6038: real time    5.6116
    MIXING:  cpu time    1.7858: real time    1.7879
    --------------------------------------------
      LOOP:  cpu time   79.0996: real time   79.2080

 eigenvalue-minimisations  :    42
 total energy-change (2. order) :-0.3728516E-02  (-0.9481009E-04)
 number of electron      18.0000000 magnetization 
 augmentation part        0.0669781 magnetization 

 Broyden mixing:
  rms(total) = 0.53609E-02    rms(broyden)= 0.53609E-02
  rms(prec ) = 0.57773E-02
  weight for this iteration     100.00

 eigenvalues of (default mixing * dielectric matrix)
  average eigenvalue GAMMA=   1.5219
  3.8650  2.3851  2.3851  1.5010  0.9287  0.9287  0.9543  0.7443  0.7443  0.7824

 Free energy of the ion-electron system (eV)
  ---------------------------------------------------
  alpha Z        PSCENC =         0.02084913
  Ewald energy   TEWEN  =       703.29053079
  -Hartree energ DENC   =     -1570.32567944
  -exchange      EXHF   =         0.00000000
  -V(xc)+E(xc)   XCENC  =        65.48717787
  PAW double counting   =      9874.42245591    -9872.16527953
  entropy T*S    EENTRO =        -0.00000000
  eigenvalues    EBANDS =      -266.72015281
  atomic energy  EATOM  =      1036.88658833
  Solvation  Ediel_sol  =         0.00000000
  ---------------------------------------------------
  free energy    TOTEN  =       -29.10350975 eV

  energy without entropy =      -29.10350975  energy(sigma->0) =      -29.10350975


--------------------------------------------------------------------------------------------------------




--------------------------------------- Iteration      1(  16)  ---------------------------------------


    POTLOK:  cpu time   48.4359: real time   48.4961
    SETDIJ:  cpu time    0.0599: real time    0.0599
     EDDAV:  cpu time   22.5922: real time   22.6262
       DOS:  cpu time    0.0064: real time    0.0064
    CHARGE:  cpu time    5.6371: real time    5.6450
    MIXING:  cpu time    1.6176: real time    1.6198
    --------------------------------------------
      LOOP:  cpu time   78.3491: real time   78.4534

 eigenvalue-minimisations  :    40
 total energy-change (2. order) :-0.2264618E-02  (-0.2875602E-04)
 number of electron      18.0000000 magnetization 
 augmentation part        0.0669688 magnetization 

 Broyden mixing:
  rms(total) = 0.40090E-02    rms(broyden)= 0.40090E-02
  rms(prec ) = 0.42380E-02
  weight for this iteration     100.00

 eigenvalues of (default mixing * dielectric matrix)
  average eigenvalue GAMMA=   1.5626
  4.7265  2.5222  2.5222  1.3526  1.1766  1.0062  1.0062  0.7538  0.7538  0.6844
  0.6844

 Free energy of the ion-electron system (eV)
  ---------------------------------------------------
  alpha Z        PSCENC =         0.02084913
  Ewald energy   TEWEN  =       703.29053079
  -Hartree energ DENC   =     -1570.37860603
  -exchange      EXHF   =         0.00000000
  -V(xc)+E(xc)   XCENC  =        65.48265692
  PAW double counting   =      9878.79997538    -9876.54193002
  entropy T*S    EENTRO =        -0.00000000
  eigenvalues    EBANDS =      -266.66583888
  atomic energy  EATOM  =      1036.88658833
  Solvation  Ediel_sol  =         0.00000000
  ---------------------------------------------------
  free energy    TOTEN  =       -29.10577437 eV

  energy without entropy =      -29.10577437  energy(sigma->0) =      -29.10577437


--------------------------------------------------------------------------------------------------------




--------------------------------------- Iteration      1(  17)  ---------------------------------------


    POTLOK:  cpu time   48.3225: real time   48.3827
    SETDIJ:  cpu time    0.0559: real time    0.0559
     EDDAV:  cpu time   20.8773: real time   20.9084
       DOS:  cpu time    0.0063: real time    0.0063
    CHARGE:  cpu time    6.0794: real time    6.0873
    MIXING:  cpu time    1.4601: real time    1.4622
    --------------------------------------------
      LOOP:  cpu time   76.8014: real time   76.9028

 eigenvalue-minimisations  :    36
 total energy-change (2. order) :-0.1012572E-02  (-0.9443144E-05)
 number of electron      18.0000000 magnetization 
 augmentation part        0.0669176 magnetization 

 Broyden mixing:
  rms(total) = 0.46020E-02    rms(broyden)= 0.46020E-02
  rms(prec ) = 0.47040E-02
  weight for this iteration     100.00

 eigenvalues of (default mixing * dielectric matrix)
  average eigenvalue GAMMA=   1.6330
  5.3130  2.8175  2.2744  1.5746  1.5746  1.2827  0.8371  0.8371  0.8198  0.8198
  0.7228  0.7228

 Free energy of the ion-electron system (eV)
  ---------------------------------------------------
  alpha Z        PSCENC =         0.02084913
  Ewald energy   TEWEN  =       703.29053079
  -Hartree energ DENC   =     -1570.44327962
  -exchange      EXHF   =         0.00000000
  -V(xc)+E(xc)   XCENC  =        65.48229863
  PAW double counting   =      9880.07607601    -9877.81795721
  entropy T*S    EENTRO =        -0.00000000
  eigenvalues    EBANDS =      -266.60189300
  atomic energy  EATOM  =      1036.88658833
  Solvation  Ediel_sol  =         0.00000000
  ---------------------------------------------------
  free energy    TOTEN  =       -29.10678694 eV

  energy without entropy =      -29.10678694  energy(sigma->0) =      -29.10678694


--------------------------------------------------------------------------------------------------------




--------------------------------------- Iteration      1(  18)  ---------------------------------------


    POTLOK:  cpu time   48.5134: real time   48.5741
    SETDIJ:  cpu time    0.0621: real time    0.0621
     EDDAV:  cpu time   22.5703: real time   22.6046
       DOS:  cpu time    0.0059: real time    0.0059
    CHARGE:  cpu time    5.5691: real time    5.5769
    MIXING:  cpu time    1.6370: real time    1.6392
    --------------------------------------------
      LOOP:  cpu time   78.3579: real time   78.4628

 eigenvalue-minimisations  :    40
 total energy-change (2. order) :-0.9736833E-03  (-0.6087908E-05)
 number of electron      18.0000000 magnetization 
 augmentation part        0.0669389 magnetization 

 Broyden mixing:
  rms(total) = 0.22958E-02    rms(broyden)= 0.22958E-02
  rms(prec ) = 0.23823E-02
  weight for this iteration     100.00

 eigenvalues of (default mixing * dielectric matrix)
  average eigenvalue GAMMA=   1.7094
  5.5877  3.0595  2.4040  2.4040  1.7034  1.1287  1.1287  0.8218  0.8218  0.8801
  0.8801  0.7014  0.7014

 Free energy of the ion-electron system (eV)
  ---------------------------------------------------
  alpha Z        PSCENC =         0.02084913
  Ewald energy   TEWEN  =       703.29053079
  -Hartree energ DENC   =     -1570.45964896
  -exchange      EXHF   =         0.00000000
  -V(xc)+E(xc)   XCENC  =        65.48033736
  PAW double counting   =      9870.83915099    -9868.58083332
  entropy T*S    EENTRO =        -0.00000000
  eigenvalues    EBANDS =      -266.58473495
  atomic energy  EATOM  =      1036.88658833
  Solvation  Ediel_sol  =         0.00000000
  ---------------------------------------------------
  free energy    TOTEN  =       -29.10776063 eV

  energy without entropy =      -29.10776063  energy(sigma->0) =      -29.10776063


--------------------------------------------------------------------------------------------------------




--------------------------------------- Iteration      1(  19)  ---------------------------------------


    POTLOK:  cpu time   48.3159: real time   48.3768
    SETDIJ:  cpu time    0.0555: real time    0.0555
     EDDAV:  cpu time   23.3669: real time   23.4024
       DOS:  cpu time    0.0065: real time    0.0065
    CHARGE:  cpu time    6.0938: real time    6.1019
    MIXING:  cpu time    1.5730: real time    1.5753
    --------------------------------------------
      LOOP:  cpu time   79.4116: real time   79.5185

 eigenvalue-minimisations  :    42
 total energy-change (2. order) :-0.9005108E-03  (-0.5440131E-05)
 number of electron      18.0000000 magnetization 
 augmentation part        0.0669230 magnetization 

 Broyden mixing:
  rms(total) = 0.11635E-02    rms(broyden)= 0.11635E-02
  rms(prec ) = 0.12056E-02
  weight for this iteration     100.00

 eigenvalues of (default mixing * dielectric matrix)
  average eigenvalue GAMMA=   1.8414
  7.5529  3.3805  2.4911  2.3522  1.8500  1.2664  1.2664  0.8545  0.8545  0.8775
  0.8045  0.8045  0.7124  0.7124

 Free energy of the ion-electron system (eV)
  ---------------------------------------------------
  alpha Z        PSCENC =         0.02084913
  Ewald energy   TEWEN  =       703.29053079
  -Hartree energ DENC   =     -1570.47798167
  -exchange      EXHF   =         0.00000000
  -V(xc)+E(xc)   XCENC  =        65.47927166
  PAW double counting   =      9860.84733596    -9858.58917853
  entropy T*S    EENTRO =        -0.00000000
  eigenvalues    EBANDS =      -266.56607681
  atomic energy  EATOM  =      1036.88658833
  Solvation  Ediel_sol  =         0.00000000
  ---------------------------------------------------
  free energy    TOTEN  =       -29.10866114 eV

  energy without entropy =      -29.10866114  energy(sigma->0) =      -29.10866114


--------------------------------------------------------------------------------------------------------




--------------------------------------- Iteration      1(  20)  ---------------------------------------


    POTLOK:  cpu time   48.2211: real time   48.2819
    SETDIJ:  cpu time    0.0567: real time    0.0567
     EDDAV:  cpu time   25.8785: real time   25.9178
       DOS:  cpu time    0.0051: real time    0.0051
    CHARGE:  cpu time    5.5698: real time    5.5776
    MIXING:  cpu time    2.1265: real time    2.1290
    --------------------------------------------
      LOOP:  cpu time   81.8578: real time   81.9682

 eigenvalue-minimisations  :    48
 total energy-change (2. order) :-0.2433973E-03  (-0.1094718E-05)
 number of electron      18.0000000 magnetization 
 augmentation part        0.0669112 magnetization 

 Broyden mixing:
  rms(total) = 0.87998E-03    rms(broyden)= 0.87998E-03
  rms(prec ) = 0.90435E-03
  weight for this iteration     100.00

 eigenvalues of (default mixing * dielectric matrix)
  average eigenvalue GAMMA=   1.8680
  7.6799  3.7237  2.5337  2.5337  1.8581  1.8581  1.1030  0.9920  0.9920  0.8275
  0.8275  0.8392  0.8392  0.7058  0.7058

 Free energy of the ion-electron system (eV)
  ---------------------------------------------------
  alpha Z        PSCENC =         0.02084913
  Ewald energy   TEWEN  =       703.29053079
  -Hartree energ DENC   =     -1570.48929284
  -exchange      EXHF   =         0.00000000
  -V(xc)+E(xc)   XCENC  =        65.47896141
  PAW double counting   =      9862.29096046    -9860.03273960
  entropy T*S    EENTRO =        -0.00000000
  eigenvalues    EBANDS =      -266.55476222
  atomic energy  EATOM  =      1036.88658833
  Solvation  Ediel_sol  =         0.00000000
  ---------------------------------------------------
  free energy    TOTEN  =       -29.10890454 eV

  energy without entropy =      -29.10890454  energy(sigma->0) =      -29.10890454


--------------------------------------------------------------------------------------------------------




--------------------------------------- Iteration      1(  21)  ---------------------------------------


    POTLOK:  cpu time   48.3901: real time   48.4506
    SETDIJ:  cpu time    0.0499: real time    0.0499
     EDDAV:  cpu time   17.8430: real time   17.8694
       DOS:  cpu time    0.0069: real time    0.0069
    CHARGE:  cpu time    6.1137: real time    6.1217
    MIXING:  cpu time    1.7088: real time    1.7113
    --------------------------------------------
      LOOP:  cpu time   74.1124: real time   74.2098

 eigenvalue-minimisations  :    28
 total energy-change (2. order) :-0.2384392E-03  (-0.4584762E-06)
 number of electron      18.0000000 magnetization 
 augmentation part        0.0669143 magnetization 

 Broyden mixing:
  rms(total) = 0.52988E-03    rms(broyden)= 0.52988E-03
  rms(prec ) = 0.54261E-03
  weight for this iteration     100.00

 eigenvalues of (default mixing * dielectric matrix)
  average eigenvalue GAMMA=   1.8845
  7.9929  4.1966  2.4824  2.4824  1.8785  1.8785  1.3930  1.0613  1.0613  0.9907
  0.8303  0.8303  0.8290  0.8290  0.7082  0.7082

 Free energy of the ion-electron system (eV)
  ---------------------------------------------------
  alpha Z        PSCENC =         0.02084913
  Ewald energy   TEWEN  =       703.29053079
  -Hartree energ DENC   =     -1570.47869274
  -exchange      EXHF   =         0.00000000
  -V(xc)+E(xc)   XCENC  =        65.47818459
  PAW double counting   =      9863.50483112    -9861.24653466
  entropy T*S    EENTRO =        -0.00000000
  eigenvalues    EBANDS =      -266.56489954
  atomic energy  EATOM  =      1036.88658833
  Solvation  Ediel_sol  =         0.00000000
  ---------------------------------------------------
  free energy    TOTEN  =       -29.10914298 eV

  energy without entropy =      -29.10914298  energy(sigma->0) =      -29.10914298


--------------------------------------------------------------------------------------------------------




--------------------------------------- Iteration      1(  22)  ---------------------------------------


    POTLOK:  cpu time   48.3374: real time   48.3983
    SETDIJ:  cpu time    0.0487: real time    0.0487
     EDDAV:  cpu time   25.7556: real time   25.7946
       DOS:  cpu time    0.0065: real time    0.0065
    CHARGE:  cpu time    5.6009: real time    5.6086
    MIXING:  cpu time    2.0723: real time    2.0749
    --------------------------------------------
      LOOP:  cpu time   81.8214: real time   81.9317

 eigenvalue-minimisations  :    48
 total energy-change (2. order) :-0.8550175E-04  (-0.1198717E-06)
 number of electron      18.0000000 magnetization 
 augmentation part        0.0669156 magnetization 

 Broyden mixing:
  rms(total) = 0.39741E-03    rms(broyden)= 0.39741E-03
  rms(prec ) = 0.40546E-03
  weight for this iteration     100.00

 eigenvalues of (default mixing * dielectric matrix)
  average eigenvalue GAMMA=   1.9989
  8.6702  5.0975  3.0662  2.3694  2.3694  2.0249  1.4999  1.1616  0.9965  0.9965
  0.9956  0.8294  0.8294  0.8293  0.8293  0.7078  0.7078

 Free energy of the ion-electron system (eV)
  ---------------------------------------------------
  alpha Z        PSCENC =         0.02084913
  Ewald energy   TEWEN  =       703.29053079
  -Hartree energ DENC   =     -1570.47843744
  -exchange      EXHF   =         0.00000000
  -V(xc)+E(xc)   XCENC  =        65.47808479
  PAW double counting   =      9863.50865581    -9861.25039942
  entropy T*S    EENTRO =        -0.00000000
  eigenvalues    EBANDS =      -266.56510046
  atomic energy  EATOM  =      1036.88658833
  Solvation  Ediel_sol  =         0.00000000
  ---------------------------------------------------
  free energy    TOTEN  =       -29.10922848 eV

  energy without entropy =      -29.10922848  energy(sigma->0) =      -29.10922848


--------------------------------------------------------------------------------------------------------




--------------------------------------- Iteration      1(  23)  ---------------------------------------


    POTLOK:  cpu time   48.1381: real time   48.1986
    SETDIJ:  cpu time    0.0847: real time    0.0848
     EDDAV:  cpu time   17.5970: real time   17.6248
       DOS:  cpu time    0.0059: real time    0.0059
    CHARGE:  cpu time    5.3577: real time    5.3656
    MIXING:  cpu time    1.9876: real time    1.9902
    --------------------------------------------
      LOOP:  cpu time   73.1711: real time   73.2698

 eigenvalue-minimisations  :    28
 total energy-change (2. order) :-0.9070948E-04  (-0.1203028E-06)
 number of electron      18.0000000 magnetization 
 augmentation part        0.0669133 magnetization 

 Broyden mixing:
  rms(total) = 0.11496E-03    rms(broyden)= 0.11496E-03
  rms(prec ) = 0.12114E-03
  weight for this iteration     100.00

 eigenvalues of (default mixing * dielectric matrix)
  average eigenvalue GAMMA=   2.0096
  8.9734  5.2779  3.1989  2.4177  2.4177  2.2704  1.4576  1.2928  1.0855  1.0855
  0.7072  0.7072  0.8275  0.8275  0.8493  0.8493  1.0054  0.9211

 Free energy of the ion-electron system (eV)
  ---------------------------------------------------
  alpha Z        PSCENC =         0.02084913
  Ewald energy   TEWEN  =       703.29053079
  -Hartree energ DENC   =     -1570.47790380
  -exchange      EXHF   =         0.00000000
  -V(xc)+E(xc)   XCENC  =        65.47797018
  PAW double counting   =      9864.79937556    -9862.54111724
  entropy T*S    EENTRO =        -0.00000000
  eigenvalues    EBANDS =      -266.56561214
  atomic energy  EATOM  =      1036.88658833
  Solvation  Ediel_sol  =         0.00000000
  ---------------------------------------------------
  free energy    TOTEN  =       -29.10931919 eV

  energy without entropy =      -29.10931919  energy(sigma->0) =      -29.10931919


--------------------------------------------------------------------------------------------------------




--------------------------------------- Iteration      1(  24)  ---------------------------------------


    POTLOK:  cpu time   48.1711: real time   48.2315
    SETDIJ:  cpu time    0.0663: real time    0.0663
     EDDAV:  cpu time   19.3155: real time   19.3444
       DOS:  cpu time    0.0002: real time    0.0002
    CHARGE:  cpu time    5.5744: real time    5.5822
    MIXING:  cpu time    2.4874: real time    2.4905
    --------------------------------------------
      LOOP:  cpu time   75.6148: real time   75.7152

 eigenvalue-minimisations  :    32
 total energy-change (2. order) :-0.2657689E-04  (-0.1180948E-07)
 number of electron      18.0000000 magnetization 
 augmentation part        0.0669139 magnetization 

 Broyden mixing:
  rms(total) = 0.86320E-04    rms(broyden)= 0.86320E-04
  rms(prec ) = 0.89883E-04
  weight for this iteration     100.00

 eigenvalues of (default mixing * dielectric matrix)
  average eigenvalue GAMMA=   2.0632
  9.1096  5.9188  3.4360  2.7975  2.2679  2.2679  2.0523  1.4776  1.2169  1.0169
  1.0169  0.8282  0.8282  0.7074  0.7074  0.9795  0.8373  0.8373  0.8974

 Free energy of the ion-electron system (eV)
  ---------------------------------------------------
  alpha Z        PSCENC =         0.02084913
  Ewald energy   TEWEN  =       703.29053079
  -Hartree energ DENC   =     -1570.47873292
  -exchange      EXHF   =         0.00000000
  -V(xc)+E(xc)   XCENC  =        65.47798204
  PAW double counting   =      9865.01118754    -9862.75292522
  entropy T*S    EENTRO =        -0.00000000
  eigenvalues    EBANDS =      -266.56482545
  atomic energy  EATOM  =      1036.88658833
  Solvation  Ediel_sol  =         0.00000000
  ---------------------------------------------------
  free energy    TOTEN  =       -29.10934576 eV

  energy without entropy =      -29.10934576  energy(sigma->0) =      -29.10934576


--------------------------------------------------------------------------------------------------------




--------------------------------------- Iteration      1(  25)  ---------------------------------------


    POTLOK:  cpu time   48.0943: real time   48.1553
    SETDIJ:  cpu time    0.0574: real time    0.0574
     EDDAV:  cpu time   17.5561: real time   17.5833
       DOS:  cpu time    0.0064: real time    0.0064
    CHARGE:  cpu time    5.3068: real time    5.3144
    MIXING:  cpu time    2.3076: real time    2.3107
    --------------------------------------------
      LOOP:  cpu time   73.3286: real time   73.4273

 eigenvalue-minimisations  :    28
 total energy-change (2. order) :-0.2175904E-04  (-0.2268609E-07)
 number of electron      18.0000000 magnetization 
 augmentation part        0.0669121 magnetization 

 Broyden mixing:
  rms(total) = 0.83570E-04    rms(broyden)= 0.83570E-04
  rms(prec ) = 0.84571E-04
  weight for this iteration     100.00

 eigenvalues of (default mixing * dielectric matrix)
  average eigenvalue GAMMA=   2.0524
  9.2086  5.9569  3.6559  2.5277  2.5277  2.3142  2.3142  1.4777  1.2280  1.2280
  1.0692  1.0692  0.8278  0.8278  0.7073  0.7073  0.8427  0.8427  0.8576  0.8576

 Free energy of the ion-electron system (eV)
  ---------------------------------------------------
  alpha Z        PSCENC =         0.02084913
  Ewald energy   TEWEN  =       703.29053079
  -Hartree energ DENC   =     -1570.47962368
  -exchange      EXHF   =         0.00000000
  -V(xc)+E(xc)   XCENC  =        65.47801384
  PAW double counting   =      9865.03945913    -9862.78120632
  entropy T*S    EENTRO =        -0.00000000
  eigenvalues    EBANDS =      -266.56397874
  atomic energy  EATOM  =      1036.88658833
  Solvation  Ediel_sol  =         0.00000000
  ---------------------------------------------------
  free energy    TOTEN  =       -29.10936752 eV

  energy without entropy =      -29.10936752  energy(sigma->0) =      -29.10936752


--------------------------------------------------------------------------------------------------------




--------------------------------------- Iteration      1(  26)  ---------------------------------------


    POTLOK:  cpu time   48.0779: real time   48.1400
    SETDIJ:  cpu time    0.0487: real time    0.0487
     EDDAV:  cpu time   19.2882: real time   19.3176
       DOS:  cpu time    0.0053: real time    0.0053
    CHARGE:  cpu time    5.7628: real time    5.7708
    MIXING:  cpu time    2.3608: real time    2.3639
    --------------------------------------------
      LOOP:  cpu time   75.5438: real time   75.6463

 eigenvalue-minimisations  :    32
 total energy-change (2. order) :-0.6267327E-05  (-0.3027013E-08)
 number of electron      18.0000000 magnetization 
 augmentation part        0.0669127 magnetization 

 Broyden mixing:
  rms(total) = 0.37146E-04    rms(broyden)= 0.37146E-04
  rms(prec ) = 0.38143E-04
  weight for this iteration     100.00

 eigenvalues of (default mixing * dielectric matrix)
  average eigenvalue GAMMA=   2.0790
  9.4583  6.2429  4.2751  2.5746  2.5746  2.6211  2.3158  1.5636  1.2814  1.2814
  1.0526  1.0526  0.9591  0.7073  0.7073  0.8388  0.8388  0.8387  0.8387  0.8184
  0.8184

 Free energy of the ion-electron system (eV)
  ---------------------------------------------------
  alpha Z        PSCENC =         0.02084913
  Ewald energy   TEWEN  =       703.29053079
  -Hartree energ DENC   =     -1570.47972521
  -exchange      EXHF   =         0.00000000
  -V(xc)+E(xc)   XCENC  =        65.47800461
  PAW double counting   =      9864.92435358    -9862.66609748
  entropy T*S    EENTRO =        -0.00000000
  eigenvalues    EBANDS =      -266.56387754
  atomic energy  EATOM  =      1036.88658833
  Solvation  Ediel_sol  =         0.00000000
  ---------------------------------------------------
  free energy    TOTEN  =       -29.10937379 eV

  energy without entropy =      -29.10937379  energy(sigma->0) =      -29.10937379


--------------------------------------------------------------------------------------------------------




--------------------------------------- Iteration      1(  27)  ---------------------------------------


    POTLOK:  cpu time   47.9798: real time   48.0405
    SETDIJ:  cpu time    0.0522: real time    0.0522
     EDDAV:  cpu time   14.3527: real time   14.3742
       DOS:  cpu time    0.0051: real time    0.0051
    CHARGE:  cpu time    5.5621: real time    5.5700
    MIXING:  cpu time    2.1536: real time    2.1569
    --------------------------------------------
      LOOP:  cpu time   70.1054: real time   70.1989

 eigenvalue-minimisations  :    20
 total energy-change (2. order) :-0.4226411E-05  (-0.2655918E-08)
 number of electron      18.0000000 magnetization 
 augmentation part        0.0669127 magnetization 

 Broyden mixing:
  rms(total) = 0.18663E-04    rms(broyden)= 0.18663E-04
  rms(prec ) = 0.19457E-04
  weight for this iteration     100.00

 eigenvalues of (default mixing * dielectric matrix)
  average eigenvalue GAMMA=   2.0730
  9.5181  6.6268  4.6236  3.0009  2.4508  2.4508  2.2825  1.6029  1.2771  1.2771
  1.0343  1.0343  1.0308  1.0308  0.7073  0.7073  0.8294  0.8294  0.8237  0.8237
  0.8225  0.8225

 Free energy of the ion-electron system (eV)
  ---------------------------------------------------
  alpha Z        PSCENC =         0.02084913
  Ewald energy   TEWEN  =       703.29053079
  -Hartree energ DENC   =     -1570.47992708
  -exchange      EXHF   =         0.00000000
  -V(xc)+E(xc)   XCENC  =        65.47800488
  PAW double counting   =      9864.82261470    -9862.56435797
  entropy T*S    EENTRO =        -0.00000000
  eigenvalues    EBANDS =      -266.56368079
  atomic energy  EATOM  =      1036.88658833
  Solvation  Ediel_sol  =         0.00000000
  ---------------------------------------------------
  free energy    TOTEN  =       -29.10937802 eV

  energy without entropy =      -29.10937802  energy(sigma->0) =      -29.10937802


--------------------------------------------------------------------------------------------------------




--------------------------------------- Iteration      1(  28)  ---------------------------------------


    POTLOK:  cpu time   48.0122: real time   48.0724
    SETDIJ:  cpu time    0.0558: real time    0.0558
     EDDAV:  cpu time   19.1437: real time   19.1729
       DOS:  cpu time    0.0057: real time    0.0057
    CHARGE:  cpu time    5.6132: real time    5.6210
    MIXING:  cpu time    2.7910: real time    2.7945
    --------------------------------------------
      LOOP:  cpu time   75.6215: real time   75.7223

 eigenvalue-minimisations  :    32
 total energy-change (2. order) :-0.2245473E-05  (-0.2127839E-08)
 number of electron      18.0000000 magnetization 
 augmentation part        0.0669132 magnetization 

 Broyden mixing:
  rms(total) = 0.18815E-04    rms(broyden)= 0.18815E-04
  rms(prec ) = 0.19178E-04
  weight for this iteration     100.00

 eigenvalues of (default mixing * dielectric matrix)
  average eigenvalue GAMMA=   2.1091
  9.5998  6.8550  4.9618  3.3159  2.5559  2.5559  2.1493  2.1493  1.5810  1.2418
  1.2418  1.0722  1.0722  0.9651  0.7074  0.7074  0.8289  0.8289  0.8498  0.8498
  0.8161  0.8161  0.7871

 Free energy of the ion-electron system (eV)
  ---------------------------------------------------
  alpha Z        PSCENC =         0.02084913
  Ewald energy   TEWEN  =       703.29053079
  -Hartree energ DENC   =     -1570.47986490
  -exchange      EXHF   =         0.00000000
  -V(xc)+E(xc)   XCENC  =        65.47799808
  PAW double counting   =      9864.79623833    -9862.53797960
  entropy T*S    EENTRO =        -0.00000000
  eigenvalues    EBANDS =      -266.56374041
  atomic energy  EATOM  =      1036.88658833
  Solvation  Ediel_sol  =         0.00000000
  ---------------------------------------------------
  free energy    TOTEN  =       -29.10938026 eV

  energy without entropy =      -29.10938026  energy(sigma->0) =      -29.10938026


--------------------------------------------------------------------------------------------------------




--------------------------------------- Iteration      1(  29)  ---------------------------------------


    POTLOK:  cpu time   48.0772: real time   48.1378
    SETDIJ:  cpu time    0.0650: real time    0.0650
     EDDAV:  cpu time   14.3734: real time   14.3947
       DOS:  cpu time    0.0052: real time    0.0052
    CHARGE:  cpu time    5.5879: real time    5.5957
    MIXING:  cpu time    2.3082: real time    2.3117
    --------------------------------------------
      LOOP:  cpu time   70.4169: real time   70.5100

 eigenvalue-minimisations  :    20
 total energy-change (2. order) :-0.2156893E-05  (-0.1867850E-08)
 number of electron      18.0000000 magnetization 
 augmentation part        0.0669132 magnetization 

 Broyden mixing:
  rms(total) = 0.20153E-04    rms(broyden)= 0.20153E-04
  rms(prec ) = 0.20248E-04
  weight for this iteration     100.00

 eigenvalues of (default mixing * dielectric matrix)
  average eigenvalue GAMMA=   2.1298
  9.6053  7.2359  5.1699  3.8204  2.7294  2.4750  2.4750  2.2335  1.6332  1.2216
  1.2216  1.0456  1.0456  1.0157  1.0157  0.8268  0.8268  0.7073  0.7073  0.8412
  0.8449  0.8449  0.7857  0.7857

 Free energy of the ion-electron system (eV)
  ---------------------------------------------------
  alpha Z        PSCENC =         0.02084913
  Ewald energy   TEWEN  =       703.29053079
  -Hartree energ DENC   =     -1570.47980813
  -exchange      EXHF   =         0.00000000
  -V(xc)+E(xc)   XCENC  =        65.47799130
  PAW double counting   =      9864.74172702    -9862.48346884
  entropy T*S    EENTRO =        -0.00000000
  eigenvalues    EBANDS =      -266.56379202
  atomic energy  EATOM  =      1036.88658833
  Solvation  Ediel_sol  =         0.00000000
  ---------------------------------------------------
  free energy    TOTEN  =       -29.10938242 eV

  energy without entropy =      -29.10938242  energy(sigma->0) =      -29.10938242


--------------------------------------------------------------------------------------------------------




--------------------------------------- Iteration      1(  30)  ---------------------------------------


    POTLOK:  cpu time   48.0323: real time   48.0929
    SETDIJ:  cpu time    0.0486: real time    0.0486
     EDDAV:  cpu time   19.3118: real time   19.3407
       DOS:  cpu time    0.0002: real time    0.0002
    CHARGE:  cpu time    5.6898: real time    5.6976
    MIXING:  cpu time    2.7960: real time    2.7998
    --------------------------------------------
      LOOP:  cpu time   75.8786: real time   75.9798

 eigenvalue-minimisations  :    32
 total energy-change (2. order) :-0.7255298E-06  (-0.1433536E-08)
 number of electron      18.0000000 magnetization 
 augmentation part        0.0669131 magnetization 

 Broyden mixing:
  rms(total) = 0.95520E-05    rms(broyden)= 0.95520E-05
  rms(prec ) = 0.96205E-05
  weight for this iteration     100.00

 eigenvalues of (default mixing * dielectric matrix)
  average eigenvalue GAMMA=   2.1425
  9.6725  7.3786  5.4020  4.0697  2.8949  2.5089  2.5089  1.8406  1.8406  1.6098
  1.2705  1.2705  1.0673  1.0673  1.0317  0.9197  0.9197  0.8283  0.8283  0.7073
  0.7073  0.8265  0.8265  0.7829  0.7829

 Free energy of the ion-electron system (eV)
  ---------------------------------------------------
  alpha Z        PSCENC =         0.02084913
  Ewald energy   TEWEN  =       703.29053079
  -Hartree energ DENC   =     -1570.47976889
  -exchange      EXHF   =         0.00000000
  -V(xc)+E(xc)   XCENC  =        65.47798980
  PAW double counting   =      9864.78443962    -9862.52618186
  entropy T*S    EENTRO =        -0.00000000
  eigenvalues    EBANDS =      -266.56383007
  atomic energy  EATOM  =      1036.88658833
  Solvation  Ediel_sol  =         0.00000000
  ---------------------------------------------------
  free energy    TOTEN  =       -29.10938314 eV

  energy without entropy =      -29.10938314  energy(sigma->0) =      -29.10938314


--------------------------------------------------------------------------------------------------------




--------------------------------------- Iteration      1(  31)  ---------------------------------------


    POTLOK:  cpu time   47.8518: real time   47.9121
    SETDIJ:  cpu time    0.0549: real time    0.0550
     EDDAV:  cpu time   14.3933: real time   14.4152
       DOS:  cpu time    0.0002: real time    0.0002
    CHARGE:  cpu time    5.5856: real time    5.5935
    MIXING:  cpu time    2.9098: real time    2.9138
    --------------------------------------------
      LOOP:  cpu time   70.7957: real time   70.8897

 eigenvalue-minimisations  :    20
 total energy-change (2. order) :-0.3982070E-06  (-0.1190486E-08)
 number of electron      18.0000000 magnetization 
 augmentation part        0.0669130 magnetization 

 Broyden mixing:
  rms(total) = 0.57517E-05    rms(broyden)= 0.57517E-05
  rms(prec ) = 0.57993E-05
  weight for this iteration     100.00

 eigenvalues of (default mixing * dielectric matrix)
  average eigenvalue GAMMA=   2.1747
  9.7101  7.5853  5.7454  4.3231  3.2580  2.5852  2.5852  2.3963  1.8432  1.8432
  1.2498  1.2498  1.0552  1.0552  1.0346  1.0346  0.8286  0.8286  0.7073  0.7073
  0.9261  0.8325  0.8325  0.8075  0.8075  0.7115

 Free energy of the ion-electron system (eV)
  ---------------------------------------------------
  alpha Z        PSCENC =         0.02084913
  Ewald energy   TEWEN  =       703.29053079
  -Hartree energ DENC   =     -1570.47979369
  -exchange      EXHF   =         0.00000000
  -V(xc)+E(xc)   XCENC  =        65.47799166
  PAW double counting   =      9864.80908800    -9862.55083077
  entropy T*S    EENTRO =        -0.00000000
  eigenvalues    EBANDS =      -266.56380699
  atomic energy  EATOM  =      1036.88658833
  Solvation  Ediel_sol  =         0.00000000
  ---------------------------------------------------
  free energy    TOTEN  =       -29.10938354 eV

  energy without entropy =      -29.10938354  energy(sigma->0) =      -29.10938354


--------------------------------------------------------------------------------------------------------




--------------------------------------- Iteration      1(  32)  ---------------------------------------


    POTLOK:  cpu time   47.7747: real time   47.8351
    SETDIJ:  cpu time    0.0800: real time    0.0800
     EDDAV:  cpu time   19.1978: real time   19.2294
       DOS:  cpu time    0.0064: real time    0.0064
    CHARGE:  cpu time    5.8717: real time    5.8796
    MIXING:  cpu time    2.9191: real time    2.9232
    --------------------------------------------
      LOOP:  cpu time   75.8497: real time   75.9537

 eigenvalue-minimisations  :    32
 total energy-change (2. order) :-0.2412332E-06  (-0.1049436E-08)
 number of electron      18.0000000 magnetization 
 augmentation part        0.0669130 magnetization 

 Broyden mixing:
  rms(total) = 0.45154E-05    rms(broyden)= 0.45154E-05
  rms(prec ) = 0.45331E-05
  weight for this iteration     100.00

 eigenvalues of (default mixing * dielectric matrix)
  average eigenvalue GAMMA=   2.1434
  9.7061  7.7344  5.8506  4.4104  3.2734  2.5664  2.5664  2.4679  1.8652  1.8345
  1.2687  1.2687  1.0447  1.0447  1.0313  1.0313  0.9279  0.8593  0.8593  0.8305
  0.8305  0.7073  0.7073  0.8311  0.8311  0.7617  0.7617

 Free energy of the ion-electron system (eV)
  ---------------------------------------------------
  alpha Z        PSCENC =         0.02084913
  Ewald energy   TEWEN  =       703.29053079
  -Hartree energ DENC   =     -1570.47979350
  -exchange      EXHF   =         0.00000000
  -V(xc)+E(xc)   XCENC  =        65.47799230
  PAW double counting   =      9864.82124783    -9862.56299056
  entropy T*S    EENTRO =        -0.00000000
  eigenvalues    EBANDS =      -266.56380811
  atomic energy  EATOM  =      1036.88658833
  Solvation  Ediel_sol  =         0.00000000
  ---------------------------------------------------
  free energy    TOTEN  =       -29.10938378 eV

  energy without entropy =      -29.10938378  energy(sigma->0) =      -29.10938378


--------------------------------------------------------------------------------------------------------




--------------------------------------- Iteration      1(  33)  ---------------------------------------


    POTLOK:  cpu time   47.7533: real time   47.8140
    SETDIJ:  cpu time    0.0572: real time    0.0572
     EDDAV:  cpu time   19.1911: real time   19.2202
       DOS:  cpu time    0.0002: real time    0.0002
    --------------------------------------------
      LOOP:  cpu time   67.0016: real time   67.0915

 eigenvalue-minimisations  :    32
 total energy-change (2. order) :-0.5478955E-07  (-0.9843646E-09)
 number of electron      18.0000000 magnetization 
 augmentation part        0.0669130 magnetization 

 Free energy of the ion-electron system (eV)
  ---------------------------------------------------
  alpha Z        PSCENC =         0.02084913
  Ewald energy   TEWEN  =       703.29053079
  -Hartree energ DENC   =     -1570.47978698
  -exchange      EXHF   =         0.00000000
  -V(xc)+E(xc)   XCENC  =        65.47799203
  PAW double counting   =      9864.81878890    -9862.56053154
  entropy T*S    EENTRO =        -0.00000000
  eigenvalues    EBANDS =      -266.56381450
  atomic energy  EATOM  =      1036.88658833
  Solvation  Ediel_sol  =         0.00000000
  ---------------------------------------------------
  free energy    TOTEN  =       -29.10938384 eV

  energy without entropy =      -29.10938384  energy(sigma->0) =      -29.10938384


--------------------------------------------------------------------------------------------------------




 average (electrostatic) potential at core
  the test charge radii are     0.4325  0.5770  0.5955
  (the norm of the test charge is              1.0000)
       1 -47.3182       2 -47.2742       3 -89.8543       4-119.1159       5-123.2773
 
 
 
 E-fermi :  -6.7852     XC(G=0):  -0.0337     alpha+bet : -0.0075


 k-point     1 :       0.0000    0.0000    0.0000
  band No.  band energies     occupation 
      1     -29.9482      2.00000
      2     -24.9623      2.00000
      3     -15.5512      2.00000
      4     -12.5303      2.00000
      5     -12.4874      2.00000
      6     -12.4269      2.00000
      7      -9.6878      2.00000
      8      -8.8151      2.00000
      9      -6.8727      2.00000
     10      -2.7320      0.00000
     11      -2.7199      0.00000
     12      -0.6227      0.00000
     13      -0.0078      0.00000
     14       0.0459      0.00000


--------------------------------------------------------------------------------------------------------


 soft charge-density along one line, spin component            1
         0         1         2         3         4         5         6         7         8         9
 total charge-density along one line
 
 pseudopotential strength for first ion, spin component:            1
 -2.533  -5.386  -0.003  -0.010   0.000
 -5.386 -11.428  -0.006  -0.021   0.001
 -0.003  -0.006  -1.388   0.007  -0.000
 -0.010  -0.021   0.007  -1.368  -0.001
  0.000   0.001  -0.000  -0.001  -1.390
 total augmentation occupancy for first ion, spin component:            1
  4.234  -0.793   0.097   0.360  -0.011
 -0.793   0.177  -0.017  -0.069   0.002
  0.097  -0.017   0.009   0.006  -0.000
  0.360  -0.069   0.006   0.032  -0.001
 -0.011   0.002  -0.000  -0.001   0.011


------------------------ aborting loop because EDIFF is reached ----------------------------------------



 DIPCOR: dipole corrections for dipol
 direction  1 min pos   478, direction  2 min pos   548, direction  3 min pos   521,
 dipolmoment          -0.011842     -0.335033      0.286644 electrons x Angstroem
 Tr[quadrupol]         7.955890

 energy correction for charged system         0.000000 eV
 dipol+quadrupol energy correction            0.000137 eV
 added-field ion interaction          0.000000 eV  (added to PSCEN)

 
  *************** adding dipol energy to TOTEN NOW **************** 
    CHARGE:  cpu time    5.3932: real time    5.4010
    FORLOC:  cpu time    3.0263: real time    3.0286
    FORNL :  cpu time    0.7918: real time    0.7931
    STRESS:  cpu time    9.8464: real time    9.8596
    FORCOR:  cpu time   46.6481: real time   46.7050
    FORHAR:  cpu time   14.2343: real time   14.2511
    MIXING:  cpu time    2.7281: real time    2.7323
    OFIELD:  cpu time    0.0000: real time    0.0000

  FORCE on cell =-STRESS in cart. coord.  units (eV):
  Direction    XX          YY          ZZ          XY          YZ          ZX
  --------------------------------------------------------------------------------------
  Alpha Z     0.02085     0.02085     0.02085
  Ewald     -63.11723   738.40245    28.00475     7.28239    36.31904    -2.61733
  Hartree   365.10947   823.36175   382.00855     3.22150    11.55454    -0.47043
  E(xc)     -83.37521   -81.86194   -82.95485     0.01699     0.10671    -0.01247
  Local    -663.19980 -1869.69985  -742.03029    -9.99029   -39.79448     2.23092
  n-local   -27.53086   -28.01952   -23.74378    -0.07817     1.42342    -0.10672
  augment     1.71003     1.31919     1.12920     0.00063    -0.14637     0.01730
  Kinetic   470.37831   418.49441   437.87244    -0.45636    -9.28564     0.94994
  Fock        0.00000     0.00000     0.00000     0.00000     0.00000     0.00000
  -------------------------------------------------------------------------------------
  Total      -0.00444     2.01736     0.30688    -0.00331     0.17723    -0.00879
  in kB      -0.00017     0.07539     0.01147    -0.00012     0.00662    -0.00033
  external pressure =        0.03 kB  Pullay stress =        0.00 kB


 VOLUME and BASIS-vectors are now :
 -----------------------------------------------------------------------------
  energy-cutoff  :     2000.00
  volume of cell :    42875.00
      direct lattice vectors                 reciprocal lattice vectors
    35.000000000  0.000000000  0.000000000     0.028571429  0.000000000  0.000000000
     0.000000000 35.000000000  0.000000000     0.000000000  0.028571429  0.000000000
     0.000000000  0.000000000 35.000000000     0.000000000  0.000000000  0.028571429

  length of vectors
    35.000000000 35.000000000 35.000000000     0.028571429  0.028571429  0.028571429


 FORCES acting on ions
    electron-ion (+dipol)            ewald-force                    non-local-force                 convergence-correction
 -----------------------------------------------------------------------------------------------
   -.255E+01 0.375E+02 0.894E+02   0.280E+01 -.400E+02 -.980E+02   -.239E+00 0.236E+01 0.823E+01   -.386E-07 -.402E-06 0.327E-06
   -.102E+01 -.529E+02 -.342E+01   0.112E+01 0.614E+02 0.369E+01   -.967E-01 -.862E+01 -.257E+00   -.668E-07 -.286E-06 0.781E-06
   -.475E+01 -.273E+03 -.254E+00   0.528E+01 0.301E+03 0.194E+00   -.534E+00 -.279E+02 0.589E-01   -.259E-06 -.520E-05 0.390E-06
   0.252E+01 0.137E+03 -.502E+02   -.424E+01 -.167E+03 0.908E+02   0.171E+01 0.295E+02 -.403E+02   -.909E-06 -.621E-05 0.148E-04
   0.397E+01 0.107E+03 -.304E+01   -.495E+01 -.155E+03 0.335E+01   0.991E+00 0.485E+02 -.277E+00   -.456E-06 -.653E-05 0.147E-05
 -----------------------------------------------------------------------------------------------
   -.183E+01 -.438E+02 0.325E+02   0.000E+00 0.000E+00 -.169E-13   0.183E+01 0.438E+02 -.325E+02   -.173E-05 -.186E-04 0.178E-04
 
 
 POSITION                                       TOTAL-FORCE (eV/Angst)
 -----------------------------------------------------------------------------------
      0.02749      1.74109     34.06848         0.009434     -0.190700     -0.334632
      0.01191      2.93850     34.99851        -0.001220     -0.072215      0.014549
      0.02959      5.77724     34.99666        -0.004401     -0.184958     -0.000824
      0.00000      1.97721      0.00000        -0.010154     -0.585623      0.288066
      0.00801      4.63849     34.99892         0.006340      1.033495      0.032842
 -----------------------------------------------------------------------------------
    total drift:                                0.000015     -0.000006      0.000021


--------------------------------------------------------------------------------------------------------



  FREE ENERGIE OF THE ION-ELECTRON SYSTEM (eV)
  ---------------------------------------------------
  free  energy   TOTEN  =       -29.10924698 eV

  energy  without entropy=      -29.10924698  energy(sigma->0) =      -29.10924698
 


--------------------------------------------------------------------------------------------------------


    POTLOK:  cpu time   47.8001: real time   47.8603


--------------------------------------------------------------------------------------------------------


 writing wavefunctions
     LOOP+:  cpu time 3334.0943: real time 3344.2414
    4ORBIT:  cpu time    0.0000: real time    0.0000

 total amount of memory used by VASP MPI-rank0  7814025. kBytes
=======================================================================

   base      :      30000. kBytes
   nonl-proj :     148031. kBytes
   fftplans  :    2602168. kBytes
   grid      :    4972871. kBytes
   one-center:          1. kBytes
   wavefun   :      60954. kBytes
 
  
  
 General timing and accounting informations for this job:
 ========================================================
  
                  Total CPU time used (sec):     4401.365
                            User time (sec):     4208.281
                          System time (sec):      193.084
                         Elapsed time (sec):     4423.076
  
                   Maximum memory used (kb):    10421400.
                   Average memory used (kb):           0.
  
                          Minor page faults:    182276305
                          Major page faults:          113
                 Voluntary context switches:         2085
