 vasp.6.1.2 22Jul20 (build Jan  6 2021 09:55:43) gamma-only                      
 executed on             LinuxPGI date 2021.03.22  11:22:47
 running on   16 total cores
 distrk:  each k-point on   16 cores,    1 groups
 distr:  one band on NCORE=   8 cores,    2 groups


--------------------------------------------------------------------------------------------------------


 INCAR:
 POTCAR:    PAW_PBE H_h 06Feb2004                 
 POTCAR:    PAW_PBE C_h 06Feb2004                 
 POTCAR:    PAW_PBE O_h 06Feb2004                 
 POTCAR:    PAW_PBE H_h 06Feb2004                 
   VRHFIN =H: ultrasoft test                                                                        
   LEXCH  = PE                                                                                      
   EATOM  =    12.4884 eV,    0.9179 Ry                                                             
                                                                                                    
   TITEL  = PAW_PBE H_h 06Feb2004                                                                   
   LULTRA =        F    use ultrasoft PP ?                                                          
   IUNSCR =        0    unscreen: 0-lin 1-nonlin 2-no                                               
   RPACOR =    0.000    partial core radius                                                         
   POMASS =    1.000; ZVAL   =    1.000    mass and valenz                                          
   RCORE  =    0.800    outmost cutoff radius                                                       
   RWIGS  =    0.700; RWIGS  =    0.370    wigner-seitz radius (au A)                               
   ENMAX  =  700.000; ENMIN  =  350.000 eV                                                          
   RCLOC  =    0.701    cutoff for local pot                                                        
   LCOR   =        T    correct aug charges                                                         
   LPAW   =        T    paw PP                                                                      
   EAUG   = 1000.000                                                                                
   RMAX   =    0.819    core radius for proj-oper                                                   
   RAUG   =    1.000    factor for augmentation sphere                                              
   RDEP   =    0.817    radius for radial grids                                                     
   RDEPT  =    0.817    core radius for aug-charge                                                  
                                                                                                    
   Atomic configuration                                                                             
    2 entries                                                                                       
     n  l   j            E        occ.                                                              
     1  0  0.50        -6.4927   1.0000                                                             
     2  1  0.50        -3.4015   0.0000                                                             
   Description                                                                                      
     l       E           TYP  RCUT    TYP  RCUT                                                     
     0     -6.4927493     23  0.800                                                                 
     0      6.8029130     23  0.800                                                                 
     1     -6.8029130     23  0.800                                                                 
  local pseudopotential read in
  atomic valenz-charges read in
  non local Contribution for L=            0  read in
    real space projection operators read in
  non local Contribution for L=            0  read in
    real space projection operators read in
  non local Contribution for L=            1  read in
    real space projection operators read in
    PAW grid and wavefunctions read in
 
   number of l-projection  operators is LMAX  =            3
   number of lm-projection operators is LMMAX =            5
 
 POTCAR:    PAW_PBE C_h 06Feb2004                 
   VRHFIN =C: s2p2                                                                                  
   LEXCH  = PE                                                                                      
   EATOM  =   147.1560 eV,   10.8157 Ry                                                             
                                                                                                    
   TITEL  = PAW_PBE C_h 06Feb2004                                                                   
   LULTRA =        F    use ultrasoft PP ?                                                          
   IUNSCR =        1    unscreen: 0-lin 1-nonlin 2-no                                               
   RPACOR =    0.800    partial core radius                                                         
   POMASS =   12.011; ZVAL   =    4.000    mass and valenz                                          
   RCORE  =    1.100    outmost cutoff radius                                                       
   RWIGS  =    1.630; RWIGS  =    0.863    wigner-seitz radius (au A)                               
   ENMAX  =  700.000; ENMIN  =  500.000 eV                                                          
   ICORE  =        2    local potential                                                             
   LCOR   =        T    correct aug charges                                                         
   LPAW   =        T    paw PP                                                                      
   EAUG   =  946.768                                                                                
   DEXC   =    0.000                                                                                
   RMAX   =    1.128    core radius for proj-oper                                                   
   RAUG   =    1.300    factor for augmentation sphere                                              
   RDEP   =    1.162    radius for radial grids                                                     
   RDEPT  =    1.088    core radius for aug-charge                                                  
                                                                                                    
   Atomic configuration                                                                             
    4 entries                                                                                       
     n  l   j            E        occ.                                                              
     1  0  0.50      -273.3789   2.0000                                                             
     2  0  0.50       -13.7508   2.0000                                                             
     2  1  0.50        -5.2854   2.0000                                                             
     3  2  1.50        -5.4423   0.0000                                                             
   Description                                                                                      
     l       E           TYP  RCUT    TYP  RCUT                                                     
     0    -13.7508458     23  1.100                                                                 
     0     -8.2022199     23  1.100                                                                 
     1     -5.2854383     23  1.100                                                                 
     1      1.1560700     23  1.100                                                                 
     2     -5.4423304      7  1.100                                                                 
  local pseudopotential read in
  partial core-charges read in
  partial kinetic energy density read in
  atomic valenz-charges read in
  non local Contribution for L=            0  read in
    real space projection operators read in
  non local Contribution for L=            0  read in
    real space projection operators read in
  non local Contribution for L=            1  read in
    real space projection operators read in
  non local Contribution for L=            1  read in
    real space projection operators read in
    PAW grid and wavefunctions read in
 
   number of l-projection  operators is LMAX  =            4
   number of lm-projection operators is LMMAX =            8
 
 POTCAR:    PAW_PBE O_h 06Feb2004                 
   VRHFIN =O: s2p4                                                                                  
   LEXCH  = PE                                                                                      
   EATOM  =   432.3788 eV,   31.7789 Ry                                                             
                                                                                                    
   TITEL  = PAW_PBE O_h 06Feb2004                                                                   
   LULTRA =        F    use ultrasoft PP ?                                                          
   IUNSCR =        1    unscreen: 0-lin 1-nonlin 2-no                                               
   RPACOR =    0.800    partial core radius                                                         
   POMASS =   16.000; ZVAL   =    6.000    mass and valenz                                          
   RCORE  =    1.100    outmost cutoff radius                                                       
   RWIGS  =    1.400; RWIGS  =    0.741    wigner-seitz radius (au A)                               
   ENMAX  =  700.000; ENMIN  =  500.000 eV                                                          
   ICORE  =        2    local potential                                                             
   LCOR   =        T    correct aug charges                                                         
   LPAW   =        T    paw PP                                                                      
   EAUG   =  888.804                                                                                
   DEXC   =    0.000                                                                                
   RMAX   =    1.128    core radius for proj-oper                                                   
   RAUG   =    1.300    factor for augmentation sphere                                              
   RDEP   =    1.125    radius for radial grids                                                     
   RDEPT  =    1.088    core radius for aug-charge                                                  
                                                                                                    
   Atomic configuration                                                                             
    4 entries                                                                                       
     n  l   j            E        occ.                                                              
     1  0  0.50      -514.6923   2.0000                                                             
     2  0  0.50       -23.9615   2.0000                                                             
     2  1  0.50        -9.0305   4.0000                                                             
     3  2  1.50        -9.5241   0.0000                                                             
   Description                                                                                      
     l       E           TYP  RCUT    TYP  RCUT                                                     
     0    -23.9615319     23  1.100                                                                 
     0    -25.3221145     23  1.100                                                                 
     1     -9.0304911     23  1.100                                                                 
     1     -5.4802209     23  1.100                                                                 
     2     -9.5240782      7  1.100                                                                 
  local pseudopotential read in
  partial core-charges read in
  partial kinetic energy density read in
  atomic valenz-charges read in
  non local Contribution for L=            0  read in
    real space projection operators read in
  non local Contribution for L=            0  read in
    real space projection operators read in
  non local Contribution for L=            1  read in
    real space projection operators read in
  non local Contribution for L=            1  read in
    real space projection operators read in
    PAW grid and wavefunctions read in
 
   number of l-projection  operators is LMAX  =            4
   number of lm-projection operators is LMMAX =            8
 
  PAW_PBE H_h 06Feb2004                 :
 energy of atom  1       EATOM=  -12.4884
 kinetic energy error for atom=    0.0001 (will be added to EATOM!!)
  PAW_PBE C_h 06Feb2004                 :
 energy of atom  2       EATOM= -147.1560
 kinetic energy error for atom=    0.0004 (will be added to EATOM!!)
  PAW_PBE O_h 06Feb2004                 :
 energy of atom  3       EATOM= -432.3788
 kinetic energy error for atom=    0.0016 (will be added to EATOM!!)
 
 
 POSCAR:  H  C  O
  positions in cartesian coordinates
  No initial velocities read in
 exchange correlation table for  LEXCH =        8
   RHO(1)=    0.500       N(1)  =     2000
   RHO(2)=  100.500       N(2)  =     4000
 


--------------------------------------------------------------------------------------------------------


 ion  position               nearest neighbor table
   1  0.001  0.050  0.973-   4 0.96
   2  0.000  0.084  1.000-   4 0.96
   3  0.001  0.208  1.000-   5 1.14
   4  0.000  0.056  0.000-   2 0.96   1 0.96
   5  0.000  0.175  1.000-   3 1.14
 
  LATTYP: Found a simple cubic cell.
 ALAT       =    35.0000000000
  
  Lattice vectors:
  
 A1 = (  35.0000000000,   0.0000000000,   0.0000000000)
 A2 = (   0.0000000000,  35.0000000000,   0.0000000000)
 A3 = (   0.0000000000,   0.0000000000,  35.0000000000)


Analysis of symmetry for initial positions (statically):
=====================================================================
 Subroutine PRICEL returns:
 Original cell was already a primitive cell.
 

 Routine SETGRP: Setting up the symmetry group for a 
 simple cubic supercell.


 Subroutine GETGRP returns: Found  1 space group operations
 (whereof  1 operations were pure point group operations)
 out of a pool of 48 trial point group operations.


The static configuration has the point symmetry C_1 .


Analysis of symmetry for dynamics (positions and initial velocities):
=====================================================================
 Subroutine PRICEL returns:
 Original cell was already a primitive cell.
 

 Routine SETGRP: Setting up the symmetry group for a 
 simple cubic supercell.


 Subroutine GETGRP returns: Found  1 space group operations
 (whereof  1 operations were pure point group operations)
 out of a pool of 48 trial point group operations.


The dynamic configuration has the point symmetry C_1 .


 Subroutine INISYM returns: Found  1 space group operations
 (whereof  1 operations are pure point group operations),
 and found     1 'primitive' translations


----------------------------------------------------------------------------------------

                                     Primitive cell                                     

  volume of cell :   42875.0000

  direct lattice vectors                    reciprocal lattice vectors
    35.000000000  0.000000000  0.000000000     0.028571429  0.000000000  0.000000000
     0.000000000 35.000000000  0.000000000     0.000000000  0.028571429  0.000000000
     0.000000000  0.000000000 35.000000000     0.000000000  0.000000000  0.028571429

  length of vectors
    35.000000000 35.000000000 35.000000000     0.028571429  0.028571429  0.028571429

  position of ions in fractional coordinates (direct lattice)
     0.000785426  0.049745327  0.973385225
     0.000340417  0.083957172  0.999957468
     0.000845402  0.207921048  0.999904630
     0.000000000  0.056491600  0.000000000
     0.000228949  0.175385523  0.999969134

  ion indices of the primitive-cell ions
   primitive index   ion index
                 1           1
                 2           2
                 3           3
                 4           4
                 5           5

----------------------------------------------------------------------------------------

 
 
 KPOINTS: automatic mesh                          

Automatic generation of k-mesh.
Space group operators:
 irot       det(A)        alpha          n_x          n_y          n_z        tau_x        tau_y        tau_z
    1     1.000000     0.000000     1.000000     0.000000     0.000000     0.000000     0.000000     0.000000
 
 Subroutine IBZKPT returns following result:
 ===========================================
 
 Found      1 irreducible k-points:
 
 Following reciprocal coordinates:
            Coordinates               Weight
  0.000000  0.000000  0.000000      1.000000
 
 Following cartesian coordinates:
            Coordinates               Weight
  0.000000  0.000000  0.000000      1.000000
 


--------------------------------------------------------------------------------------------------------




 Dimension of arrays:
   k-points           NKPTS =      1   k-points in BZ     NKDIM =      1   number of bands    NBANDS=     14
   number of dos      NEDOS =    301   number of ions     NIONS =      5
   non local maximal  LDIM  =      4   non local SUM 2l+1 LMDIM =      8
   total plane-waves  NPLWV = ******
   max r-space proj   IRMAX =      1   max aug-charges    IRDMAX=  23028
   dimension x,y,z NGX =   512 NGY =  512 NGZ =  512
   dimension x,y,z NGXF=  1024 NGYF= 1024 NGZF= 1024
   support grid    NGXF=  1024 NGYF= 1024 NGZF= 1024
   ions per type =               2   1   2
   NGX,Y,Z   is equivalent  to a cutoff of  24.32, 24.32, 24.32 a.u.
   NGXF,Y,Z  is equivalent  to a cutoff of  48.64, 48.64, 48.64 a.u.

 SYSTEM =  C                                       
 POSCAR =   H  C  O                                

 Startparameter for this run:
   NWRITE =      2    write-flag & timer
   PREC   = acc       normal or accurate (medium, high low for compatibility)
   ISTART =      0    job   : 0-new  1-cont  2-samecut
   ICHARG =      2    charge: 1-file 2-atom 10-const
   ISPIN  =      1    spin polarized calculation?
   LNONCOLLINEAR =      F non collinear calculations
   LSORBIT =      F    spin-orbit coupling
   INIWAV =      1    electr: 0-lowe 1-rand  2-diag
   LASPH  =      T    aspherical Exc in radial PAW
   METAGGA=      F    non-selfconsistent MetaGGA calc.

 Electronic Relaxation 1
   ENCUT  = 2000.0 eV 147.00 Ry   12.12 a.u. 127.63127.63127.63*2*pi/ulx,y,z
   ENINI  = 2000.0     initial cutoff
   ENAUG  = 1000.0 eV  augmentation charge cutoff
   NELM   =     60;   NELMIN=  2; NELMDL= -5     # of ELM steps 
   EDIFF  = 0.1E-06   stopping-criterion for ELM
   LREAL  =      F    real-space projection
   NLSPLINE    = F    spline interpolate recip. space projectors
   LCOMPAT=      F    compatible to vasp.4.4
   GGA_COMPAT  = T    GGA compatible to vasp.4.4-vasp.4.6
   LMAXPAW     = -100 max onsite density
   LMAXMIX     =    2 max onsite mixed and CHGCAR
   VOSKOWN=      0    Vosko Wilk Nusair interpolation
   ROPT   =    0.00000   0.00000   0.00000
 Ionic relaxation
   EDIFFG = 0.1E-05   stopping-criterion for IOM
   NSW    =      0    number of steps for IOM
   NBLOCK =      1;   KBLOCK =      1    inner block; outer block 
   IBRION =     -1    ionic relax: 0-MD 1-quasi-New 2-CG
   NFREE  =      0    steps in history (QN), initial steepest desc. (CG)
   ISIF   =      2    stress and relaxation
   IWAVPR =     10    prediction:  0-non 1-charg 2-wave 3-comb
   ISYM   =      2    0-nonsym 1-usesym 2-fastsym
   LCORR  =      T    Harris-Foulkes like correction to forces

   POTIM  = 0.5000    time-step for ionic-motion
   TEIN   =    0.0    initial temperature
   TEBEG  =    0.0;   TEEND  =   0.0 temperature during run
   SMASS  =  -3.00    Nose mass-parameter (am)
   estimated Nose-frequenzy (Omega)   =  0.10E-29 period in steps = 0.13E+47 mass=  -0.280E-25a.u.
   SCALEE = 1.0000    scale energy and forces
   NPACO  =    256;   APACO  = 16.0  distance and # of slots for P.C.
   PSTRESS=    0.0 pullay stress

  Mass of Ions in am
   POMASS =   1.00 12.01 16.00
  Ionic Valenz
   ZVAL   =   1.00  4.00  6.00
  Atomic Wigner-Seitz radii
   RWIGS  =  -1.00 -1.00 -1.00
  virtual crystal weights 
   VCA    =   1.00  1.00  1.00
   NELECT =      18.0000    total number of electrons
   NUPDOWN=      -1.0000    fix difference up-down

 DOS related values:
   EMIN   =  10.00;   EMAX   =-10.00  energy-range for DOS
   EFERMI =   0.00
   ISMEAR =     0;   SIGMA  =   0.01  broadening in eV -4-tet -1-fermi 0-gaus

 Electronic relaxation 2 (details)
   IALGO  =     38    algorithm
   LDIAG  =      T    sub-space diagonalisation (order eigenvalues)
   LSUBROT=      F    optimize rotation matrix (better conditioning)
   TURBO    =      0    0=normal 1=particle mesh
   IRESTART =      0    0=no restart 2=restart with 2 vectors
   NREBOOT  =      0    no. of reboots
   NMIN     =      0    reboot dimension
   EREF     =   0.00    reference energy to select bands
   IMIX   =      4    mixing-type and parameters
     AMIX     =   0.40;   BMIX     =  1.00
     AMIX_MAG =   1.60;   BMIX_MAG =  1.00
     AMIN     =   0.10
     WC   =   100.;   INIMIX=   1;  MIXPRE=   1;  MAXMIX= -45

 Intra band minimization:
   WEIMIN = 0.0000     energy-eigenvalue tresh-hold
   EBREAK =  0.18E-08  absolut break condition
   DEPER  =   0.30     relativ break condition  

   TIME   =   0.40     timestep for ELM

  volume/ion in A,a.u.               =    8575.00     57866.96
  Fermi-wavevector in a.u.,A,eV,Ry     =   0.122583  0.231649  0.204450  0.015027
  Thomas-Fermi vector in A             =   0.746568
 
 Write flags
   LWAVE        =      T    write WAVECAR
   LDOWNSAMPLE  =      F    k-point downsampling of WAVECAR
   LCHARG       =      T    write CHGCAR
   LVTOT        =      F    write LOCPOT, total local potential
   LVHAR        =      F    write LOCPOT, Hartree potential only
   LELF         =      F    write electronic localiz. function (ELF)
   LORBIT       =      0    0 simple, 1 ext, 2 COOP (PROOUT), +10 PAW based schemes


 Dipole corrections
   LMONO  =      F    monopole corrections only (constant potential shift)
   LDIPOL =      F    correct potential (dipole corrections)
   IDIPOL =      4    1-x, 2-y, 3-z, 4-all directions 
   EPSILON=  1.0000000 bulk dielectric constant

 Exchange correlation treatment:
   GGA     =    --    GGA type
   LEXCH   =     8    internal setting for exchange type
   VOSKOWN=      0    Vosko Wilk Nusair interpolation
   LHFCALC =     F    Hartree Fock is set to
   LHFONE  =     F    Hartree Fock one center treatment
   AEXX    =    0.0000 exact exchange contribution

 Linear response parameters
   LEPSILON=     F    determine dielectric tensor
   LRPA    =     F    only Hartree local field effects (RPA)
   LNABLA  =     F    use nabla operator in PAW spheres
   LVEL    =     F    velocity operator in full k-point grid
   LINTERFAST=   F  fast interpolation
   KINTER  =     0    interpolate to denser k-point grid
   CSHIFT  =0.1000    complex shift for real part using Kramers Kronig
   OMEGAMAX=  -1.0    maximum frequency
   DEG_THRESHOLD= 0.2000000E-02 threshold for treating states as degnerate
   RTIME   =   -0.100 relaxation time in fs
  (WPLASMAI=    0.000 imaginary part of plasma frequency in eV, 0.658/RTIME)
   DFIELD  = 0.0000000 0.0000000 0.0000000 field for delta impulse in time
 
 Orbital magnetization related:
   ORBITALMAG=     F  switch on orbital magnetization
   LCHIMAG   =     F  perturbation theory with respect to B field
   DQ        =  0.001000  dq finite difference perturbation B field
   LLRAUG    =     F  two centre corrections for induced B field



--------------------------------------------------------------------------------------------------------


 Static calculation
 charge density and potential will be updated during run
 non-spin polarized calculation
 Variant of blocked Davidson
 Davidson routine will perform the subspace rotation
 perform sub-space diagonalisation
    after iterative eigenvector-optimisation
 modified Broyden-mixing scheme, WC =      100.0
 initial mixing is a Kerker type mixing with AMIX =  0.4000 and BMIX =      1.0000
 Hartree-type preconditioning will be used
 using additional bands             5
 reciprocal scheme for non local part
 use partial core corrections
 calculate Harris-corrections to forces 
   (improved forces if not selfconsistent)
 use gradient corrections 
 use of overlap-Matrix (Vanderbilt PP)
 Gauss-broadening in eV      SIGMA  =   0.01


--------------------------------------------------------------------------------------------------------


  energy-cutoff  :     2000.00
  volume of cell :    42875.00
      direct lattice vectors                 reciprocal lattice vectors
    35.000000000  0.000000000  0.000000000     0.028571429  0.000000000  0.000000000
     0.000000000 35.000000000  0.000000000     0.000000000  0.028571429  0.000000000
     0.000000000  0.000000000 35.000000000     0.000000000  0.000000000  0.028571429

  length of vectors
    35.000000000 35.000000000 35.000000000     0.028571429  0.028571429  0.028571429


 
 k-points in units of 2pi/SCALE and weight: automatic mesh                          
   0.00000000  0.00000000  0.00000000       1.000
 
 k-points in reciprocal lattice and weights: automatic mesh                          
   0.00000000  0.00000000  0.00000000       1.000
 
 position of ions in fractional coordinates (direct lattice) 
   0.00078543  0.04974533  0.97338523
   0.00034042  0.08395717  0.99995747
   0.00084540  0.20792105  0.99990463
   0.00000000  0.05649160  0.00000000
   0.00022895  0.17538552  0.99996913
 
 position of ions in cartesian coordinates  (Angst):
   0.02748992  1.74108643 34.06848289
   0.01191459  2.93850101 34.99851139
   0.02958908  7.27723670 34.99666206
   0.00000000  1.97720600  0.00000000
   0.00801323  6.13849332 34.99891970
 


--------------------------------------------------------------------------------------------------------


 use parallel FFT for orbitals z direction half grid
 k-point   1 :   0.0000 0.0000 0.0000  plane waves: 4353902

 maximum and minimum number of plane-waves per node :    544247   544233

 maximum number of plane-waves:   4353902
 maximum index in each direction: 
   IXMAX=  127   IYMAX=  127   IZMAX=  127
   IXMIN= -127   IYMIN= -127   IZMIN=    0


 parallel 3D FFT for wavefunctions:
    minimum data exchange during FFTs selected (reduces bandwidth)
 parallel 3D FFT for charge:
    minimum data exchange during FFTs selected (reduces bandwidth)


 total amount of memory used by VASP MPI-rank0  7814025. kBytes
=======================================================================

   base      :      30000. kBytes
   nonl-proj :     148031. kBytes
   fftplans  :    2602168. kBytes
   grid      :    4972871. kBytes
   one-center:          1. kBytes
   wavefun   :      60954. kBytes
 
     INWAV:  cpu time    0.0000: real time    0.0000
 Broyden mixing: mesh for mixing (old mesh)
   NGX =255   NGY =255   NGZ =255
  (NGX  =***   NGY  =***   NGZ  =***)
  gives a total of ****** points

 initial charge density was supplied:
 charge density of overlapping atoms calculated
 number of electron      18.0000000 magnetization 
 keeping initial charge density in first step


--------------------------------------------------------------------------------------------------------


 Maximum index for augmentation-charges          1251 (set IRDMAX)


--------------------------------------------------------------------------------------------------------


 First call to EWALD:  gamma=   0.051
 Maximum number of real-space cells 3x 3x 3
 Maximum number of reciprocal cells 3x 3x 3

    FEWALD:  cpu time    0.0008: real time    0.0008


--------------------------------------- Iteration      1(   1)  ---------------------------------------


    POTLOK:  cpu time   41.3243: real time   41.3671
    SETDIJ:  cpu time    0.0405: real time    0.0417
     EDDAV:  cpu time   23.3595: real time   23.4120
       DOS:  cpu time    0.0046: real time    0.0046
    --------------------------------------------
      LOOP:  cpu time   64.7289: real time   64.8255

 eigenvalue-minimisations  :    44
 total energy-change (2. order) : 0.1687158E+03  (-0.3729326E+03)
 number of electron      18.0000000 magnetization 
 augmentation part       18.0000000 magnetization 

 Free energy of the ion-electron system (eV)
  ---------------------------------------------------
  alpha Z        PSCENC =         0.02084913
  Ewald energy   TEWEN  =       564.34750226
  -Hartree energ DENC   =     -1378.62429907
  -exchange      EXHF   =         0.00000000
  -V(xc)+E(xc)   XCENC  =        62.12316168
  PAW double counting   =       810.18903546     -807.36841507
  entropy T*S    EENTRO =        -0.00000000
  eigenvalues    EBANDS =      -118.85866104
  atomic energy  EATOM  =      1036.88658833
  Solvation  Ediel_sol  =         0.00000000
  ---------------------------------------------------
  free energy    TOTEN  =       168.71576167 eV

  energy without entropy =      168.71576167  energy(sigma->0) =      168.71576167


--------------------------------------------------------------------------------------------------------




--------------------------------------- Iteration      1(   2)  ---------------------------------------


     EDDAV:  cpu time   20.0688: real time   20.1022
       DOS:  cpu time    0.0028: real time    0.0028
    --------------------------------------------
      LOOP:  cpu time   20.0715: real time   20.1049

 eigenvalue-minimisations  :    36
 total energy-change (2. order) :-0.7596033E+02  (-0.7551626E+02)
 number of electron      18.0000000 magnetization 
 augmentation part       18.0000000 magnetization 

 Free energy of the ion-electron system (eV)
  ---------------------------------------------------
  alpha Z        PSCENC =         0.02084913
  Ewald energy   TEWEN  =       564.34750226
  -Hartree energ DENC   =     -1378.62429907
  -exchange      EXHF   =         0.00000000
  -V(xc)+E(xc)   XCENC  =        62.12316168
  PAW double counting   =       810.18903546     -807.36841507
  entropy T*S    EENTRO =        -0.00502926
  eigenvalues    EBANDS =      -194.81395683
  atomic energy  EATOM  =      1036.88658833
  Solvation  Ediel_sol  =         0.00000000
  ---------------------------------------------------
  free energy    TOTEN  =        92.75543663 eV

  energy without entropy =       92.76046588  energy(sigma->0) =       92.75795126


--------------------------------------------------------------------------------------------------------




--------------------------------------- Iteration      1(   3)  ---------------------------------------


     EDDAV:  cpu time   28.0247: real time   28.0669
       DOS:  cpu time    0.0033: real time    0.0033
    --------------------------------------------
      LOOP:  cpu time   28.0280: real time   28.0702

 eigenvalue-minimisations  :    56
 total energy-change (2. order) :-0.7700778E+02  (-0.7583923E+02)
 number of electron      18.0000000 magnetization 
 augmentation part       18.0000000 magnetization 

 Free energy of the ion-electron system (eV)
  ---------------------------------------------------
  alpha Z        PSCENC =         0.02084913
  Ewald energy   TEWEN  =       564.34750226
  -Hartree energ DENC   =     -1378.62429907
  -exchange      EXHF   =         0.00000000
  -V(xc)+E(xc)   XCENC  =        62.12316168
  PAW double counting   =       810.18903546     -807.36841507
  entropy T*S    EENTRO =        -0.00000000
  eigenvalues    EBANDS =      -271.82676233
  atomic energy  EATOM  =      1036.88658833
  Solvation  Ediel_sol  =         0.00000000
  ---------------------------------------------------
  free energy    TOTEN  =        15.74766038 eV

  energy without entropy =       15.74766038  energy(sigma->0) =       15.74766038


--------------------------------------------------------------------------------------------------------




--------------------------------------- Iteration      1(   4)  ---------------------------------------


     EDDAV:  cpu time   19.5609: real time   19.5876
       DOS:  cpu time    0.0029: real time    0.0029
    --------------------------------------------
      LOOP:  cpu time   19.5638: real time   19.5905

 eigenvalue-minimisations  :    34
 total energy-change (2. order) :-0.3613522E+02  (-0.3610288E+02)
 number of electron      18.0000000 magnetization 
 augmentation part       18.0000000 magnetization 

 Free energy of the ion-electron system (eV)
  ---------------------------------------------------
  alpha Z        PSCENC =         0.02084913
  Ewald energy   TEWEN  =       564.34750226
  -Hartree energ DENC   =     -1378.62429907
  -exchange      EXHF   =         0.00000000
  -V(xc)+E(xc)   XCENC  =        62.12316168
  PAW double counting   =       810.18903546     -807.36841507
  entropy T*S    EENTRO =        -0.00000000
  eigenvalues    EBANDS =      -307.96197777
  atomic energy  EATOM  =      1036.88658833
  Solvation  Ediel_sol  =         0.00000000
  ---------------------------------------------------
  free energy    TOTEN  =       -20.38755506 eV

  energy without entropy =      -20.38755506  energy(sigma->0) =      -20.38755506


--------------------------------------------------------------------------------------------------------




--------------------------------------- Iteration      1(   5)  ---------------------------------------


     EDDAV:  cpu time   17.1213: real time   17.1460
       DOS:  cpu time    0.0016: real time    0.0016
    CHARGE:  cpu time    5.2985: real time    5.3045
    MIXING:  cpu time    0.8968: real time    0.8977
    --------------------------------------------
      LOOP:  cpu time   23.3181: real time   23.3497

 eigenvalue-minimisations  :    28
 total energy-change (2. order) :-0.1105633E+02  (-0.1105165E+02)
 number of electron      18.0000000 magnetization 
 augmentation part        0.1028792 magnetization 

 Broyden mixing:
  rms(total) = 0.30259E+01    rms(broyden)= 0.30259E+01
  rms(prec ) = 0.30344E+01
  weight for this iteration     100.00

 Free energy of the ion-electron system (eV)
  ---------------------------------------------------
  alpha Z        PSCENC =         0.02084913
  Ewald energy   TEWEN  =       564.34750226
  -Hartree energ DENC   =     -1378.62429907
  -exchange      EXHF   =         0.00000000
  -V(xc)+E(xc)   XCENC  =        62.12316168
  PAW double counting   =       810.18903546     -807.36841507
  entropy T*S    EENTRO =        -0.00000000
  eigenvalues    EBANDS =      -319.01830430
  atomic energy  EATOM  =      1036.88658833
  Solvation  Ediel_sol  =         0.00000000
  ---------------------------------------------------
  free energy    TOTEN  =       -31.44388159 eV

  energy without entropy =      -31.44388159  energy(sigma->0) =      -31.44388159


--------------------------------------------------------------------------------------------------------




--------------------------------------- Iteration      1(   6)  ---------------------------------------


    POTLOK:  cpu time   41.2956: real time   41.3384
    SETDIJ:  cpu time    0.0511: real time    0.0512
     EDDAV:  cpu time   24.9136: real time   24.9475
       DOS:  cpu time    0.0272: real time    0.0272
    CHARGE:  cpu time    5.1108: real time    5.1166
    MIXING:  cpu time    0.9660: real time    0.9742
    --------------------------------------------
      LOOP:  cpu time   72.3644: real time   72.4550

 eigenvalue-minimisations  :    48
 total energy-change (2. order) : 0.1706361E+01  (-0.1436557E+01)
 number of electron      18.0000000 magnetization 
 augmentation part        0.0824610 magnetization 

 Broyden mixing:
  rms(total) = 0.21788E+01    rms(broyden)= 0.21788E+01
  rms(prec ) = 0.21813E+01
  weight for this iteration     100.00

 eigenvalues of (default mixing * dielectric matrix)
  average eigenvalue GAMMA=   1.4663
  1.4663

 Free energy of the ion-electron system (eV)
  ---------------------------------------------------
  alpha Z        PSCENC =         0.02084913
  Ewald energy   TEWEN  =       564.34750226
  -Hartree energ DENC   =     -1411.20435697
  -exchange      EXHF   =         0.00000000
  -V(xc)+E(xc)   XCENC  =        63.95879536
  PAW double counting   =      2687.06418945    -2684.70031339
  entropy T*S    EENTRO =        -0.00000000
  eigenvalues    EBANDS =      -286.11077432
  atomic energy  EATOM  =      1036.88658833
  Solvation  Ediel_sol  =         0.00000000
  ---------------------------------------------------
  free energy    TOTEN  =       -29.73752016 eV

  energy without entropy =      -29.73752016  energy(sigma->0) =      -29.73752016


--------------------------------------------------------------------------------------------------------




--------------------------------------- Iteration      1(   7)  ---------------------------------------


    POTLOK:  cpu time   41.3809: real time   41.4281
    SETDIJ:  cpu time    0.0513: real time    0.0514
     EDDAV:  cpu time   24.8556: real time   24.8889
       DOS:  cpu time    0.0038: real time    0.0038
    CHARGE:  cpu time    5.0214: real time    5.0272
    MIXING:  cpu time    0.9942: real time    0.9952
    --------------------------------------------
      LOOP:  cpu time   72.3072: real time   72.3945

 eigenvalue-minimisations  :    48
 total energy-change (2. order) : 0.3509437E+00  (-0.3643772E+00)
 number of electron      18.0000000 magnetization 
 augmentation part        0.0482739 magnetization 

 Broyden mixing:
  rms(total) = 0.12430E+01    rms(broyden)= 0.12430E+01
  rms(prec ) = 0.12451E+01
  weight for this iteration     100.00

 eigenvalues of (default mixing * dielectric matrix)
  average eigenvalue GAMMA=   1.7813
  0.8048  2.7579

 Free energy of the ion-electron system (eV)
  ---------------------------------------------------
  alpha Z        PSCENC =         0.02084913
  Ewald energy   TEWEN  =       564.34750226
  -Hartree energ DENC   =     -1430.28111364
  -exchange      EXHF   =         0.00000000
  -V(xc)+E(xc)   XCENC  =        65.05448816
  PAW double counting   =      6151.97707616    -6149.78644994
  entropy T*S    EENTRO =        -0.00000000
  eigenvalues    EBANDS =      -267.60551695
  atomic energy  EATOM  =      1036.88658833
  Solvation  Ediel_sol  =         0.00000000
  ---------------------------------------------------
  free energy    TOTEN  =       -29.38657650 eV

  energy without entropy =      -29.38657650  energy(sigma->0) =      -29.38657650


--------------------------------------------------------------------------------------------------------




--------------------------------------- Iteration      1(   8)  ---------------------------------------


    POTLOK:  cpu time   41.3777: real time   41.4224
    SETDIJ:  cpu time    0.0404: real time    0.0404
     EDDAV:  cpu time   19.3484: real time   19.3808
       DOS:  cpu time    0.0053: real time    0.0053
    CHARGE:  cpu time    5.0485: real time    5.0546
    MIXING:  cpu time    1.0294: real time    1.0304
    --------------------------------------------
      LOOP:  cpu time   66.8497: real time   66.9339

 eigenvalue-minimisations  :    34
 total energy-change (2. order) : 0.1390069E+00  (-0.1171352E+00)
 number of electron      18.0000000 magnetization 
 augmentation part        0.0687017 magnetization 

 Broyden mixing:
  rms(total) = 0.29356E+00    rms(broyden)= 0.29356E+00
  rms(prec ) = 0.29455E+00
  weight for this iteration     100.00

 eigenvalues of (default mixing * dielectric matrix)
  average eigenvalue GAMMA=   1.3912
  2.4724  0.8506  0.8506

 Free energy of the ion-electron system (eV)
  ---------------------------------------------------
  alpha Z        PSCENC =         0.02084913
  Ewald energy   TEWEN  =       564.34750226
  -Hartree energ DENC   =     -1433.58176280
  -exchange      EXHF   =         0.00000000
  -V(xc)+E(xc)   XCENC  =        65.32755086
  PAW double counting   =     10675.91680403   -10673.64759477
  entropy T*S    EENTRO =        -0.00000000
  eigenvalues    EBANDS =      -264.51750660
  atomic energy  EATOM  =      1036.88658833
  Solvation  Ediel_sol  =         0.00000000
  ---------------------------------------------------
  free energy    TOTEN  =       -29.24756958 eV

  energy without entropy =      -29.24756958  energy(sigma->0) =      -29.24756958


--------------------------------------------------------------------------------------------------------




--------------------------------------- Iteration      1(   9)  ---------------------------------------


    POTLOK:  cpu time   41.4250: real time   41.4693
    SETDIJ:  cpu time    0.0587: real time    0.0587
     EDDAV:  cpu time   21.6339: real time   21.6690
       DOS:  cpu time    0.0296: real time    0.0296
    CHARGE:  cpu time    5.0748: real time    5.0807
    MIXING:  cpu time    1.0486: real time    1.0497
    --------------------------------------------
      LOOP:  cpu time   69.2706: real time   69.3570

 eigenvalue-minimisations  :    40
 total energy-change (2. order) : 0.1950825E-02  (-0.1176018E-01)
 number of electron      18.0000000 magnetization 
 augmentation part        0.0630371 magnetization 

 Broyden mixing:
  rms(total) = 0.16134E+00    rms(broyden)= 0.16134E+00
  rms(prec ) = 0.16178E+00
  weight for this iteration     100.00

 eigenvalues of (default mixing * dielectric matrix)
  average eigenvalue GAMMA=   1.2732
  2.5807  0.9548  0.9548  0.6023

 Free energy of the ion-electron system (eV)
  ---------------------------------------------------
  alpha Z        PSCENC =         0.02084913
  Ewald energy   TEWEN  =       564.34750226
  -Hartree energ DENC   =     -1433.10173879
  -exchange      EXHF   =         0.00000000
  -V(xc)+E(xc)   XCENC  =        65.27252342
  PAW double counting   =      9845.86113570    -9843.59955150
  entropy T*S    EENTRO =        -0.00000000
  eigenvalues    EBANDS =      -264.93292731
  atomic energy  EATOM  =      1036.88658833
  Solvation  Ediel_sol  =         0.00000000
  ---------------------------------------------------
  free energy    TOTEN  =       -29.24561875 eV

  energy without entropy =      -29.24561875  energy(sigma->0) =      -29.24561875


--------------------------------------------------------------------------------------------------------




--------------------------------------- Iteration      1(  10)  ---------------------------------------


    POTLOK:  cpu time   41.4457: real time   41.4896
    SETDIJ:  cpu time    0.0467: real time    0.0467
     EDDAV:  cpu time   22.5984: real time   22.6297
       DOS:  cpu time    0.0142: real time    0.0142
    CHARGE:  cpu time    5.0713: real time    5.0773
    MIXING:  cpu time    1.0769: real time    1.0780
    --------------------------------------------
      LOOP:  cpu time   70.2532: real time   70.3355

 eigenvalue-minimisations  :    42
 total energy-change (2. order) :-0.3056319E-02  (-0.1439671E-02)
 number of electron      18.0000000 magnetization 
 augmentation part        0.0619779 magnetization 

 Broyden mixing:
  rms(total) = 0.11025E+00    rms(broyden)= 0.11025E+00
  rms(prec ) = 0.11096E+00
  weight for this iteration     100.00

 eigenvalues of (default mixing * dielectric matrix)
  average eigenvalue GAMMA=   1.2742
  1.9963  1.6033  0.8140  0.8140  1.1433

 Free energy of the ion-electron system (eV)
  ---------------------------------------------------
  alpha Z        PSCENC =         0.02084913
  Ewald energy   TEWEN  =       564.34750226
  -Hartree energ DENC   =     -1433.55524817
  -exchange      EXHF   =         0.00000000
  -V(xc)+E(xc)   XCENC  =        65.29178949
  PAW double counting   =      9982.30146856    -9980.03779504
  entropy T*S    EENTRO =        -0.00000000
  eigenvalues    EBANDS =      -264.50382962
  atomic energy  EATOM  =      1036.88658833
  Solvation  Ediel_sol  =         0.00000000
  ---------------------------------------------------
  free energy    TOTEN  =       -29.24867507 eV

  energy without entropy =      -29.24867507  energy(sigma->0) =      -29.24867507


--------------------------------------------------------------------------------------------------------




--------------------------------------- Iteration      1(  11)  ---------------------------------------


    POTLOK:  cpu time   41.4351: real time   41.4792
    SETDIJ:  cpu time    0.0581: real time    0.0581
     EDDAV:  cpu time   19.2637: real time   19.2931
       DOS:  cpu time    0.0196: real time    0.0196
    CHARGE:  cpu time    5.0565: real time    5.0625
    MIXING:  cpu time    1.1512: real time    1.1524
    --------------------------------------------
      LOOP:  cpu time   66.9842: real time   67.0650

 eigenvalue-minimisations  :    34
 total energy-change (2. order) :-0.1540750E-02  (-0.8216942E-03)
 number of electron      18.0000000 magnetization 
 augmentation part        0.0640959 magnetization 

 Broyden mixing:
  rms(total) = 0.50413E-01    rms(broyden)= 0.50413E-01
  rms(prec ) = 0.50971E-01
  weight for this iteration     100.00

 eigenvalues of (default mixing * dielectric matrix)
  average eigenvalue GAMMA=   1.4115
  2.4207  2.4207  1.0812  1.0812  0.7326  0.7326

 Free energy of the ion-electron system (eV)
  ---------------------------------------------------
  alpha Z        PSCENC =         0.02084913
  Ewald energy   TEWEN  =       564.34750226
  -Hartree energ DENC   =     -1432.80817492
  -exchange      EXHF   =         0.00000000
  -V(xc)+E(xc)   XCENC  =        65.23093265
  PAW double counting   =      9609.15563920    -9606.87976465
  entropy T*S    EENTRO =        -0.00000000
  eigenvalues    EBANDS =      -265.20378782
  atomic energy  EATOM  =      1036.88658833
  Solvation  Ediel_sol  =         0.00000000
  ---------------------------------------------------
  free energy    TOTEN  =       -29.25021582 eV

  energy without entropy =      -29.25021582  energy(sigma->0) =      -29.25021582


--------------------------------------------------------------------------------------------------------




--------------------------------------- Iteration      1(  12)  ---------------------------------------


    POTLOK:  cpu time   41.4779: real time   41.5246
    SETDIJ:  cpu time    0.0407: real time    0.0407
     EDDAV:  cpu time   21.8485: real time   21.8780
       DOS:  cpu time    0.0068: real time    0.0069
    CHARGE:  cpu time    5.0000: real time    5.0059
    MIXING:  cpu time    1.1874: real time    1.1887
    --------------------------------------------
      LOOP:  cpu time   69.5613: real time   69.6447

 eigenvalue-minimisations  :    40
 total energy-change (2. order) :-0.2780371E-02  (-0.1695232E-03)
 number of electron      18.0000000 magnetization 
 augmentation part        0.0642997 magnetization 

 Broyden mixing:
  rms(total) = 0.94592E-02    rms(broyden)= 0.94592E-02
  rms(prec ) = 0.10748E-01
  weight for this iteration     100.00

 eigenvalues of (default mixing * dielectric matrix)
  average eigenvalue GAMMA=   1.3623
  2.4668  2.4668  1.1727  1.1727  0.7542  0.7513  0.7513

 Free energy of the ion-electron system (eV)
  ---------------------------------------------------
  alpha Z        PSCENC =         0.02084913
  Ewald energy   TEWEN  =       564.34750226
  -Hartree energ DENC   =     -1433.37167658
  -exchange      EXHF   =         0.00000000
  -V(xc)+E(xc)   XCENC  =        65.24915198
  PAW double counting   =      9675.87732093    -9673.59800575
  entropy T*S    EENTRO =        -0.00000000
  eigenvalues    EBANDS =      -264.66472650
  atomic energy  EATOM  =      1036.88658833
  Solvation  Ediel_sol  =         0.00000000
  ---------------------------------------------------
  free energy    TOTEN  =       -29.25299619 eV

  energy without entropy =      -29.25299619  energy(sigma->0) =      -29.25299619


--------------------------------------------------------------------------------------------------------




--------------------------------------- Iteration      1(  13)  ---------------------------------------


    POTLOK:  cpu time   41.4514: real time   41.4969
    SETDIJ:  cpu time    0.0496: real time    0.0496
     EDDAV:  cpu time   24.6441: real time   24.6804
       DOS:  cpu time    0.0054: real time    0.0054
    CHARGE:  cpu time    5.0644: real time    5.0703
    MIXING:  cpu time    1.1560: real time    1.1620
    --------------------------------------------
      LOOP:  cpu time   72.3711: real time   72.4646

 eigenvalue-minimisations  :    48
 total energy-change (2. order) :-0.1672462E-02  (-0.2376389E-04)
 number of electron      18.0000000 magnetization 
 augmentation part        0.0640770 magnetization 

 Broyden mixing:
  rms(total) = 0.64130E-02    rms(broyden)= 0.64130E-02
  rms(prec ) = 0.77310E-02
  weight for this iteration     100.00

 eigenvalues of (default mixing * dielectric matrix)
  average eigenvalue GAMMA=   1.4352
  2.6710  2.6710  1.3876  1.3876  0.9249  0.9249  0.7574  0.7574

 Free energy of the ion-electron system (eV)
  ---------------------------------------------------
  alpha Z        PSCENC =         0.02084913
  Ewald energy   TEWEN  =       564.34750226
  -Hartree energ DENC   =     -1433.56152760
  -exchange      EXHF   =         0.00000000
  -V(xc)+E(xc)   XCENC  =        65.25413018
  PAW double counting   =      9669.84606405    -9667.56718964
  entropy T*S    EENTRO =        -0.00000000
  eigenvalues    EBANDS =      -264.48108536
  atomic energy  EATOM  =      1036.88658833
  Solvation  Ediel_sol  =         0.00000000
  ---------------------------------------------------
  free energy    TOTEN  =       -29.25466865 eV

  energy without entropy =      -29.25466865  energy(sigma->0) =      -29.25466865


--------------------------------------------------------------------------------------------------------




--------------------------------------- Iteration      1(  14)  ---------------------------------------


    POTLOK:  cpu time   41.4031: real time   41.4495
    SETDIJ:  cpu time    0.0410: real time    0.0410
     EDDAV:  cpu time   19.3259: real time   19.3530
       DOS:  cpu time    0.0019: real time    0.0019
    CHARGE:  cpu time    4.9602: real time    4.9664
    MIXING:  cpu time    1.2986: real time    1.3000
    --------------------------------------------
      LOOP:  cpu time   67.0308: real time   67.1117

 eigenvalue-minimisations  :    34
 total energy-change (2. order) :-0.3196140E-02  (-0.4718751E-04)
 number of electron      18.0000000 magnetization 
 augmentation part        0.0639694 magnetization 

 Broyden mixing:
  rms(total) = 0.30298E-02    rms(broyden)= 0.30298E-02
  rms(prec ) = 0.41942E-02
  weight for this iteration     100.00

 eigenvalues of (default mixing * dielectric matrix)
  average eigenvalue GAMMA=   1.4379
  3.3106  2.2698  1.8008  1.4384  1.0191  0.7820  0.7820  0.8289  0.7096

 Free energy of the ion-electron system (eV)
  ---------------------------------------------------
  alpha Z        PSCENC =         0.02084913
  Ewald energy   TEWEN  =       564.34750226
  -Hartree energ DENC   =     -1433.81988560
  -exchange      EXHF   =         0.00000000
  -V(xc)+E(xc)   XCENC  =        65.25799498
  PAW double counting   =      9676.03072040    -9673.75082791
  entropy T*S    EENTRO =        -0.00000000
  eigenvalues    EBANDS =      -264.23080637
  atomic energy  EATOM  =      1036.88658833
  Solvation  Ediel_sol  =         0.00000000
  ---------------------------------------------------
  free energy    TOTEN  =       -29.25786479 eV

  energy without entropy =      -29.25786479  energy(sigma->0) =      -29.25786479


--------------------------------------------------------------------------------------------------------




--------------------------------------- Iteration      1(  15)  ---------------------------------------


    POTLOK:  cpu time   41.4275: real time   41.4742
    SETDIJ:  cpu time    0.0412: real time    0.0412
     EDDAV:  cpu time   22.5002: real time   22.5331
       DOS:  cpu time    0.0099: real time    0.0099
    CHARGE:  cpu time    5.0727: real time    5.0788
    MIXING:  cpu time    1.2490: real time    1.2504
    --------------------------------------------
      LOOP:  cpu time   70.3005: real time   70.3876

 eigenvalue-minimisations  :    42
 total energy-change (2. order) :-0.2093783E-02  (-0.2768552E-04)
 number of electron      18.0000000 magnetization 
 augmentation part        0.0638350 magnetization 

 Broyden mixing:
  rms(total) = 0.28238E-02    rms(broyden)= 0.28238E-02
  rms(prec ) = 0.35036E-02
  weight for this iteration     100.00

 eigenvalues of (default mixing * dielectric matrix)
  average eigenvalue GAMMA=   1.5444
  3.5127  2.4277  2.0300  2.0300  1.0872  1.0872  0.7647  0.7647  0.8698  0.8698

 Free energy of the ion-electron system (eV)
  ---------------------------------------------------
  alpha Z        PSCENC =         0.02084913
  Ewald energy   TEWEN  =       564.34750226
  -Hartree energ DENC   =     -1433.97885229
  -exchange      EXHF   =         0.00000000
  -V(xc)+E(xc)   XCENC  =        65.26035622
  PAW double counting   =      9686.71274559    -9684.43265125
  entropy T*S    EENTRO =        -0.00000000
  eigenvalues    EBANDS =      -264.07649657
  atomic energy  EATOM  =      1036.88658833
  Solvation  Ediel_sol  =         0.00000000
  ---------------------------------------------------
  free energy    TOTEN  =       -29.25995858 eV

  energy without entropy =      -29.25995858  energy(sigma->0) =      -29.25995858


--------------------------------------------------------------------------------------------------------




--------------------------------------- Iteration      1(  16)  ---------------------------------------


    POTLOK:  cpu time   41.4493: real time   41.4975
    SETDIJ:  cpu time    0.0526: real time    0.0526
     EDDAV:  cpu time   19.4348: real time   19.4648
       DOS:  cpu time    0.0048: real time    0.0048
    CHARGE:  cpu time    5.0480: real time    5.0542
    MIXING:  cpu time    1.3444: real time    1.3458
    --------------------------------------------
      LOOP:  cpu time   67.3339: real time   67.4197

 eigenvalue-minimisations  :    34
 total energy-change (2. order) :-0.2992383E-02  (-0.4143253E-04)
 number of electron      18.0000000 magnetization 
 augmentation part        0.0639042 magnetization 

 Broyden mixing:
  rms(total) = 0.23811E-02    rms(broyden)= 0.23811E-02
  rms(prec ) = 0.25857E-02
  weight for this iteration     100.00

 eigenvalues of (default mixing * dielectric matrix)
  average eigenvalue GAMMA=   1.7574
  6.0011  2.5270  2.5270  1.8462  1.3625  0.9813  0.9134  0.9134  0.7751  0.7751
  0.7094

 Free energy of the ion-electron system (eV)
  ---------------------------------------------------
  alpha Z        PSCENC =         0.02084913
  Ewald energy   TEWEN  =       564.34750226
  -Hartree energ DENC   =     -1434.04530172
  -exchange      EXHF   =         0.00000000
  -V(xc)+E(xc)   XCENC  =        65.25511361
  PAW double counting   =      9687.03559682    -9684.75455227
  entropy T*S    EENTRO =        -0.00000000
  eigenvalues    EBANDS =      -264.00874711
  atomic energy  EATOM  =      1036.88658833
  Solvation  Ediel_sol  =         0.00000000
  ---------------------------------------------------
  free energy    TOTEN  =       -29.26295096 eV

  energy without entropy =      -29.26295096  energy(sigma->0) =      -29.26295096


--------------------------------------------------------------------------------------------------------




--------------------------------------- Iteration      1(  17)  ---------------------------------------


    POTLOK:  cpu time   41.4274: real time   41.4745
    SETDIJ:  cpu time    0.0410: real time    0.0411
     EDDAV:  cpu time   24.8630: real time   24.8967
       DOS:  cpu time    0.0090: real time    0.0090
    CHARGE:  cpu time    5.1007: real time    5.1067
    MIXING:  cpu time    1.3454: real time    1.3470
    --------------------------------------------
      LOOP:  cpu time   72.7866: real time   72.8749

 eigenvalue-minimisations  :    48
 total energy-change (2. order) :-0.8561280E-03  (-0.1461266E-04)
 number of electron      18.0000000 magnetization 
 augmentation part        0.0637949 magnetization 

 Broyden mixing:
  rms(total) = 0.18942E-02    rms(broyden)= 0.18942E-02
  rms(prec ) = 0.19910E-02
  weight for this iteration     100.00

 eigenvalues of (default mixing * dielectric matrix)
  average eigenvalue GAMMA=   1.7413
  6.1583  2.7465  2.1783  2.1783  1.4688  0.9743  0.9743  1.0488  0.9118  0.7647
  0.7647  0.7269

 Free energy of the ion-electron system (eV)
  ---------------------------------------------------
  alpha Z        PSCENC =         0.02084913
  Ewald energy   TEWEN  =       564.34750226
  -Hartree energ DENC   =     -1434.13065541
  -exchange      EXHF   =         0.00000000
  -V(xc)+E(xc)   XCENC  =        65.25639235
  PAW double counting   =      9686.36286529    -9684.08212018
  entropy T*S    EENTRO =        -0.00000000
  eigenvalues    EBANDS =      -263.92522886
  atomic energy  EATOM  =      1036.88658833
  Solvation  Ediel_sol  =         0.00000000
  ---------------------------------------------------
  free energy    TOTEN  =       -29.26380709 eV

  energy without entropy =      -29.26380709  energy(sigma->0) =      -29.26380709


--------------------------------------------------------------------------------------------------------




--------------------------------------- Iteration      1(  18)  ---------------------------------------


    POTLOK:  cpu time   41.5743: real time   41.6178
    SETDIJ:  cpu time    0.0415: real time    0.0415
     EDDAV:  cpu time   24.9005: real time   24.9447
       DOS:  cpu time    0.0135: real time    0.0135
    CHARGE:  cpu time    5.1264: real time    5.1327
    MIXING:  cpu time    1.4212: real time    1.4228
    --------------------------------------------
      LOOP:  cpu time   73.0774: real time   73.1731

 eigenvalue-minimisations  :    48
 total energy-change (2. order) :-0.6128876E-03  (-0.2274243E-05)
 number of electron      18.0000000 magnetization 
 augmentation part        0.0637940 magnetization 

 Broyden mixing:
  rms(total) = 0.86423E-03    rms(broyden)= 0.86423E-03
  rms(prec ) = 0.95863E-03
  weight for this iteration     100.00

 eigenvalues of (default mixing * dielectric matrix)
  average eigenvalue GAMMA=   1.7667
  6.1892  2.9858  2.2733  2.2733  1.5461  1.5461  1.1247  0.9540  0.9540  0.7669
  0.7669  0.8380  0.7486

 Free energy of the ion-electron system (eV)
  ---------------------------------------------------
  alpha Z        PSCENC =         0.02084913
  Ewald energy   TEWEN  =       564.34750226
  -Hartree energ DENC   =     -1434.12780066
  -exchange      EXHF   =         0.00000000
  -V(xc)+E(xc)   XCENC  =        65.25520049
  PAW double counting   =      9681.82086292    -9679.54019164
  entropy T*S    EENTRO =        -0.00000000
  eigenvalues    EBANDS =      -263.92743080
  atomic energy  EATOM  =      1036.88658833
  Solvation  Ediel_sol  =         0.00000000
  ---------------------------------------------------
  free energy    TOTEN  =       -29.26441998 eV

  energy without entropy =      -29.26441998  energy(sigma->0) =      -29.26441998


--------------------------------------------------------------------------------------------------------




--------------------------------------- Iteration      1(  19)  ---------------------------------------


    POTLOK:  cpu time   41.5295: real time   41.5768
    SETDIJ:  cpu time    0.0447: real time    0.0447
     EDDAV:  cpu time   17.0492: real time   17.0809
       DOS:  cpu time    0.0036: real time    0.0036
    CHARGE:  cpu time    5.1144: real time    5.1205
    MIXING:  cpu time    1.4637: real time    1.4654
    --------------------------------------------
      LOOP:  cpu time   65.2051: real time   65.2919

 eigenvalue-minimisations  :    28
 total energy-change (2. order) :-0.4877015E-03  (-0.1503202E-05)
 number of electron      18.0000000 magnetization 
 augmentation part        0.0637976 magnetization 

 Broyden mixing:
  rms(total) = 0.58950E-03    rms(broyden)= 0.58950E-03
  rms(prec ) = 0.64032E-03
  weight for this iteration     100.00

 eigenvalues of (default mixing * dielectric matrix)
  average eigenvalue GAMMA=   1.9730
  7.9088  4.2137  2.5733  2.2496  2.2496  1.3110  0.9877  0.9877  1.0717  0.9947
  0.7664  0.7664  0.8150  0.7264

 Free energy of the ion-electron system (eV)
  ---------------------------------------------------
  alpha Z        PSCENC =         0.02084913
  Ewald energy   TEWEN  =       564.34750226
  -Hartree energ DENC   =     -1434.11736971
  -exchange      EXHF   =         0.00000000
  -V(xc)+E(xc)   XCENC  =        65.25397018
  PAW double counting   =      9679.52642214    -9677.24569970
  entropy T*S    EENTRO =        -0.00000000
  eigenvalues    EBANDS =      -263.93717031
  atomic energy  EATOM  =      1036.88658833
  Solvation  Ediel_sol  =         0.00000000
  ---------------------------------------------------
  free energy    TOTEN  =       -29.26490768 eV

  energy without entropy =      -29.26490768  energy(sigma->0) =      -29.26490768


--------------------------------------------------------------------------------------------------------




--------------------------------------- Iteration      1(  20)  ---------------------------------------


    POTLOK:  cpu time   41.4026: real time   41.4463
    SETDIJ:  cpu time    0.0462: real time    0.0462
     EDDAV:  cpu time   24.8460: real time   24.8854
       DOS:  cpu time    0.0043: real time    0.0043
    CHARGE:  cpu time    5.1188: real time    5.1247
    MIXING:  cpu time    1.5164: real time    1.5183
    --------------------------------------------
      LOOP:  cpu time   72.9342: real time   73.0252

 eigenvalue-minimisations  :    48
 total energy-change (2. order) :-0.2875654E-03  (-0.1624824E-05)
 number of electron      18.0000000 magnetization 
 augmentation part        0.0637879 magnetization 

 Broyden mixing:
  rms(total) = 0.74770E-03    rms(broyden)= 0.74770E-03
  rms(prec ) = 0.75729E-03
  weight for this iteration     100.00

 eigenvalues of (default mixing * dielectric matrix)
  average eigenvalue GAMMA=   1.9432
  8.2564  4.2258  2.4866  2.4866  2.0790  1.2037  1.2037  1.2728  0.9835  0.9835
  0.7720  0.7720  0.8403  0.8403  0.7413

 Free energy of the ion-electron system (eV)
  ---------------------------------------------------
  alpha Z        PSCENC =         0.02084913
  Ewald energy   TEWEN  =       564.34750226
  -Hartree energ DENC   =     -1434.12206319
  -exchange      EXHF   =         0.00000000
  -V(xc)+E(xc)   XCENC  =        65.25364080
  PAW double counting   =      9679.64628362    -9677.36554306
  entropy T*S    EENTRO =        -0.00000000
  eigenvalues    EBANDS =      -263.93245313
  atomic energy  EATOM  =      1036.88658833
  Solvation  Ediel_sol  =         0.00000000
  ---------------------------------------------------
  free energy    TOTEN  =       -29.26519524 eV

  energy without entropy =      -29.26519524  energy(sigma->0) =      -29.26519524


--------------------------------------------------------------------------------------------------------




--------------------------------------- Iteration      1(  21)  ---------------------------------------


    POTLOK:  cpu time   41.3901: real time   41.4328
    SETDIJ:  cpu time    0.0954: real time    0.0954
     EDDAV:  cpu time   21.7136: real time   21.7467
       DOS:  cpu time    0.0134: real time    0.0134
    CHARGE:  cpu time    5.0669: real time    5.0729
    MIXING:  cpu time    1.5966: real time    1.5985
    --------------------------------------------
      LOOP:  cpu time   69.8760: real time   69.9598

 eigenvalue-minimisations  :    40
 total energy-change (2. order) :-0.7211222E-04  (-0.4520111E-07)
 number of electron      18.0000000 magnetization 
 augmentation part        0.0637857 magnetization 

 Broyden mixing:
  rms(total) = 0.52443E-03    rms(broyden)= 0.52443E-03
  rms(prec ) = 0.53169E-03
  weight for this iteration     100.00

 eigenvalues of (default mixing * dielectric matrix)
  average eigenvalue GAMMA=   2.0272
  8.5743  4.4673  2.6589  2.6589  2.3241  2.3241  1.3677  1.1098  1.1098  0.9666
  0.9666  0.7697  0.7697  0.8171  0.8171  0.7324

 Free energy of the ion-electron system (eV)
  ---------------------------------------------------
  alpha Z        PSCENC =         0.02084913
  Ewald energy   TEWEN  =       564.34750226
  -Hartree energ DENC   =     -1434.11926297
  -exchange      EXHF   =         0.00000000
  -V(xc)+E(xc)   XCENC  =        65.25338351
  PAW double counting   =      9679.95219108    -9677.67142437
  entropy T*S    EENTRO =        -0.00000000
  eigenvalues    EBANDS =      -263.93509432
  atomic energy  EATOM  =      1036.88658833
  Solvation  Ediel_sol  =         0.00000000
  ---------------------------------------------------
  free energy    TOTEN  =       -29.26526736 eV

  energy without entropy =      -29.26526736  energy(sigma->0) =      -29.26526736


--------------------------------------------------------------------------------------------------------




--------------------------------------- Iteration      1(  22)  ---------------------------------------


    POTLOK:  cpu time   41.4442: real time   41.4956
    SETDIJ:  cpu time    0.0499: real time    0.0499
     EDDAV:  cpu time   20.1627: real time   20.1940
       DOS:  cpu time    0.0057: real time    0.0057
    CHARGE:  cpu time    5.0483: real time    5.0543
    MIXING:  cpu time    1.6635: real time    1.6655
    --------------------------------------------
      LOOP:  cpu time   68.3743: real time   68.4650

 eigenvalue-minimisations  :    36
 total energy-change (2. order) :-0.1049637E-03  (-0.1373858E-06)
 number of electron      18.0000000 magnetization 
 augmentation part        0.0637864 magnetization 

 Broyden mixing:
  rms(total) = 0.19803E-03    rms(broyden)= 0.19803E-03
  rms(prec ) = 0.20243E-03
  weight for this iteration     100.00

 eigenvalues of (default mixing * dielectric matrix)
  average eigenvalue GAMMA=   1.9926
  8.5857  5.0482  2.5674  2.5674  2.3170  2.3170  1.4170  1.1555  1.1555  0.9967
  0.9967  0.8749  0.8749  0.7686  0.7686  0.7315  0.7315

 Free energy of the ion-electron system (eV)
  ---------------------------------------------------
  alpha Z        PSCENC =         0.02084913
  Ewald energy   TEWEN  =       564.34750226
  -Hartree energ DENC   =     -1434.11543371
  -exchange      EXHF   =         0.00000000
  -V(xc)+E(xc)   XCENC  =        65.25308944
  PAW double counting   =      9681.54480121    -9679.26401777
  entropy T*S    EENTRO =        -0.00000000
  eigenvalues    EBANDS =      -263.93875120
  atomic energy  EATOM  =      1036.88658833
  Solvation  Ediel_sol  =         0.00000000
  ---------------------------------------------------
  free energy    TOTEN  =       -29.26537232 eV

  energy without entropy =      -29.26537232  energy(sigma->0) =      -29.26537232


--------------------------------------------------------------------------------------------------------




--------------------------------------- Iteration      1(  23)  ---------------------------------------


    POTLOK:  cpu time   41.3059: real time   41.3548
    SETDIJ:  cpu time    0.0528: real time    0.0528
     EDDAV:  cpu time   18.5744: real time   18.6059
       DOS:  cpu time    0.0178: real time    0.0178
    CHARGE:  cpu time    5.0066: real time    5.0126
    MIXING:  cpu time    1.7425: real time    1.7446
    --------------------------------------------
      LOOP:  cpu time   66.6998: real time   66.7884

 eigenvalue-minimisations  :    32
 total energy-change (2. order) :-0.1652346E-04  (-0.1287749E-07)
 number of electron      18.0000000 magnetization 
 augmentation part        0.0637852 magnetization 

 Broyden mixing:
  rms(total) = 0.12200E-03    rms(broyden)= 0.12200E-03
  rms(prec ) = 0.12627E-03
  weight for this iteration     100.00

 eigenvalues of (default mixing * dielectric matrix)
  average eigenvalue GAMMA=   2.0535
  9.0400  5.4651  2.9757  2.6630  2.2635  2.2635  1.5965  1.5965  1.2029  1.2029
  0.9757  0.9757  0.9560  0.7681  0.7681  0.8253  0.7398  0.6848

 Free energy of the ion-electron system (eV)
  ---------------------------------------------------
  alpha Z        PSCENC =         0.02084913
  Ewald energy   TEWEN  =       564.34750226
  -Hartree energ DENC   =     -1434.11606297
  -exchange      EXHF   =         0.00000000
  -V(xc)+E(xc)   XCENC  =        65.25313057
  PAW double counting   =      9681.57033210    -9679.28956560
  entropy T*S    EENTRO =        -0.00000000
  eigenvalues    EBANDS =      -263.93816267
  atomic energy  EATOM  =      1036.88658833
  Solvation  Ediel_sol  =         0.00000000
  ---------------------------------------------------
  free energy    TOTEN  =       -29.26538884 eV

  energy without entropy =      -29.26538884  energy(sigma->0) =      -29.26538884


--------------------------------------------------------------------------------------------------------




--------------------------------------- Iteration      1(  24)  ---------------------------------------


    POTLOK:  cpu time   41.1581: real time   41.2007
    SETDIJ:  cpu time    0.0911: real time    0.0911
     EDDAV:  cpu time   16.8970: real time   16.9226
       DOS:  cpu time    0.0273: real time    0.0273
    CHARGE:  cpu time    5.0445: real time    5.0507
    MIXING:  cpu time    1.8083: real time    1.8165
    --------------------------------------------
      LOOP:  cpu time   65.0263: real time   65.1090

 eigenvalue-minimisations  :    28
 total energy-change (2. order) :-0.2547761E-04  (-0.1605725E-07)
 number of electron      18.0000000 magnetization 
 augmentation part        0.0637843 magnetization 

 Broyden mixing:
  rms(total) = 0.87038E-04    rms(broyden)= 0.87038E-04
  rms(prec ) = 0.88894E-04
  weight for this iteration     100.00

 eigenvalues of (default mixing * dielectric matrix)
  average eigenvalue GAMMA=   2.0580
  9.2614  5.8437  3.6899  2.4297  2.4297  2.1250  1.6488  1.6488  1.1947  1.1947
  1.0081  1.0081  0.7688  0.7688  0.9091  0.9091  0.8191  0.7437  0.7001

 Free energy of the ion-electron system (eV)
  ---------------------------------------------------
  alpha Z        PSCENC =         0.02084913
  Ewald energy   TEWEN  =       564.34750226
  -Hartree energ DENC   =     -1434.11781804
  -exchange      EXHF   =         0.00000000
  -V(xc)+E(xc)   XCENC  =        65.25319332
  PAW double counting   =      9681.51346159    -9679.23270580
  entropy T*S    EENTRO =        -0.00000000
  eigenvalues    EBANDS =      -263.93648512
  atomic energy  EATOM  =      1036.88658833
  Solvation  Ediel_sol  =         0.00000000
  ---------------------------------------------------
  free energy    TOTEN  =       -29.26541432 eV

  energy without entropy =      -29.26541432  energy(sigma->0) =      -29.26541432


--------------------------------------------------------------------------------------------------------




--------------------------------------- Iteration      1(  25)  ---------------------------------------


    POTLOK:  cpu time   41.2260: real time   41.2686
    SETDIJ:  cpu time    0.0499: real time    0.0499
     EDDAV:  cpu time   18.7289: real time   18.7589
       DOS:  cpu time    0.0057: real time    0.0057
    CHARGE:  cpu time    5.0623: real time    5.0683
    MIXING:  cpu time    1.8741: real time    1.8765
    --------------------------------------------
      LOOP:  cpu time   66.9468: real time   67.0278

 eigenvalue-minimisations  :    32
 total energy-change (2. order) :-0.8094348E-05  (-0.4992904E-08)
 number of electron      18.0000000 magnetization 
 augmentation part        0.0637857 magnetization 

 Broyden mixing:
  rms(total) = 0.10264E-03    rms(broyden)= 0.10264E-03
  rms(prec ) = 0.10343E-03
  weight for this iteration     100.00

 eigenvalues of (default mixing * dielectric matrix)
  average eigenvalue GAMMA=   2.1187
  9.4059  6.1920  4.0339  2.6567  2.3666  2.3666  2.3761  1.3171  1.3171  1.3355
  1.3355  0.9784  0.9784  1.0083  0.7682  0.7682  0.9021  0.8380  0.7325  0.6960

 Free energy of the ion-electron system (eV)
  ---------------------------------------------------
  alpha Z        PSCENC =         0.02084913
  Ewald energy   TEWEN  =       564.34750226
  -Hartree energ DENC   =     -1434.11743550
  -exchange      EXHF   =         0.00000000
  -V(xc)+E(xc)   XCENC  =        65.25316137
  PAW double counting   =      9681.64723676    -9679.36646673
  entropy T*S    EENTRO =        -0.00000000
  eigenvalues    EBANDS =      -263.93685803
  atomic energy  EATOM  =      1036.88658833
  Solvation  Ediel_sol  =         0.00000000
  ---------------------------------------------------
  free energy    TOTEN  =       -29.26542241 eV

  energy without entropy =      -29.26542241  energy(sigma->0) =      -29.26542241


--------------------------------------------------------------------------------------------------------




--------------------------------------- Iteration      1(  26)  ---------------------------------------


    POTLOK:  cpu time   41.1240: real time   41.1673
    SETDIJ:  cpu time    0.0425: real time    0.0425
     EDDAV:  cpu time   13.9288: real time   13.9475
       DOS:  cpu time    0.0217: real time    0.0217
    CHARGE:  cpu time    5.0445: real time    5.0507
    MIXING:  cpu time    1.8624: real time    1.8648
    --------------------------------------------
      LOOP:  cpu time   62.0239: real time   62.0945

 eigenvalue-minimisations  :    20
 total energy-change (2. order) :-0.9873103E-05  (-0.5189650E-08)
 number of electron      18.0000000 magnetization 
 augmentation part        0.0637855 magnetization 

 Broyden mixing:
  rms(total) = 0.38504E-04    rms(broyden)= 0.38504E-04
  rms(prec ) = 0.39007E-04
  weight for this iteration     100.00

 eigenvalues of (default mixing * dielectric matrix)
  average eigenvalue GAMMA=   2.1033
  9.5128  6.4140  4.2636  2.6917  2.6917  2.2947  2.2947  1.5795  1.5795  1.2206
  1.2206  1.0029  1.0029  0.9352  0.9352  0.7685  0.7685  0.7955  0.7955  0.7328
  0.6688

 Free energy of the ion-electron system (eV)
  ---------------------------------------------------
  alpha Z        PSCENC =         0.02084913
  Ewald energy   TEWEN  =       564.34750226
  -Hartree energ DENC   =     -1434.11837850
  -exchange      EXHF   =         0.00000000
  -V(xc)+E(xc)   XCENC  =        65.25319343
  PAW double counting   =      9681.31602616    -9679.03526171
  entropy T*S    EENTRO =        -0.00000000
  eigenvalues    EBANDS =      -263.93595137
  atomic energy  EATOM  =      1036.88658833
  Solvation  Ediel_sol  =         0.00000000
  ---------------------------------------------------
  free energy    TOTEN  =       -29.26543229 eV

  energy without entropy =      -29.26543229  energy(sigma->0) =      -29.26543229


--------------------------------------------------------------------------------------------------------




--------------------------------------- Iteration      1(  27)  ---------------------------------------


    POTLOK:  cpu time   41.0966: real time   41.1393
    SETDIJ:  cpu time    0.0820: real time    0.0820
     EDDAV:  cpu time   18.6117: real time   18.6424
       DOS:  cpu time    0.0169: real time    0.0169
    CHARGE:  cpu time    5.0283: real time    5.0344
    MIXING:  cpu time    1.9846: real time    1.9905
    --------------------------------------------
      LOOP:  cpu time   66.8201: real time   66.9056

 eigenvalue-minimisations  :    32
 total energy-change (2. order) :-0.2405678E-05  (-0.2470532E-08)
 number of electron      18.0000000 magnetization 
 augmentation part        0.0637859 magnetization 

 Broyden mixing:
  rms(total) = 0.23680E-04    rms(broyden)= 0.23680E-04
  rms(prec ) = 0.24081E-04
  weight for this iteration     100.00

 eigenvalues of (default mixing * dielectric matrix)
  average eigenvalue GAMMA=   2.1177
  9.5942  6.6639  4.6315  2.9096  2.9096  2.1780  2.1780  1.7520  1.7520  1.0669
  1.0669  1.1831  1.1831  0.9611  0.9611  0.7682  0.7682  0.8983  0.8983  0.8384
  0.7327  0.6937

 Free energy of the ion-electron system (eV)
  ---------------------------------------------------
  alpha Z        PSCENC =         0.02084913
  Ewald energy   TEWEN  =       564.34750226
  -Hartree energ DENC   =     -1434.11835135
  -exchange      EXHF   =         0.00000000
  -V(xc)+E(xc)   XCENC  =        65.25318687
  PAW double counting   =      9681.31120081    -9679.03043589
  entropy T*S    EENTRO =        -0.00000000
  eigenvalues    EBANDS =      -263.93597485
  atomic energy  EATOM  =      1036.88658833
  Solvation  Ediel_sol  =         0.00000000
  ---------------------------------------------------
  free energy    TOTEN  =       -29.26543469 eV

  energy without entropy =      -29.26543469  energy(sigma->0) =      -29.26543469


--------------------------------------------------------------------------------------------------------




--------------------------------------- Iteration      1(  28)  ---------------------------------------


    POTLOK:  cpu time   41.2233: real time   41.2686
    SETDIJ:  cpu time    0.0415: real time    0.0415
     EDDAV:  cpu time   13.7667: real time   13.7902
       DOS:  cpu time    0.0189: real time    0.0189
    CHARGE:  cpu time    4.9987: real time    5.0049
    MIXING:  cpu time    2.0192: real time    2.0217
    --------------------------------------------
      LOOP:  cpu time   62.0683: real time   62.1458

 eigenvalue-minimisations  :    20
 total energy-change (2. order) :-0.1854797E-05  (-0.2009612E-08)
 number of electron      18.0000000 magnetization 
 augmentation part        0.0637858 magnetization 

 Broyden mixing:
  rms(total) = 0.15637E-04    rms(broyden)= 0.15637E-04
  rms(prec ) = 0.15866E-04
  weight for this iteration     100.00

 eigenvalues of (default mixing * dielectric matrix)
  average eigenvalue GAMMA=   2.1155
  9.6196  6.9140  4.8401  3.2653  2.4348  2.4348  2.0720  2.0720  1.3613  1.3613
  1.4581  1.3293  0.9660  0.9660  1.0257  0.7683  0.7683  0.9137  0.9137  0.9172
  0.8336  0.7318  0.6886

 Free energy of the ion-electron system (eV)
  ---------------------------------------------------
  alpha Z        PSCENC =         0.02084913
  Ewald energy   TEWEN  =       564.34750226
  -Hartree energ DENC   =     -1434.11828352
  -exchange      EXHF   =         0.00000000
  -V(xc)+E(xc)   XCENC  =        65.25318051
  PAW double counting   =      9681.31637298    -9679.03560652
  entropy T*S    EENTRO =        -0.00000000
  eigenvalues    EBANDS =      -263.93603972
  atomic energy  EATOM  =      1036.88658833
  Solvation  Ediel_sol  =         0.00000000
  ---------------------------------------------------
  free energy    TOTEN  =       -29.26543655 eV

  energy without entropy =      -29.26543655  energy(sigma->0) =      -29.26543655


--------------------------------------------------------------------------------------------------------




--------------------------------------- Iteration      1(  29)  ---------------------------------------


    POTLOK:  cpu time   41.1906: real time   41.2341
    SETDIJ:  cpu time    0.0687: real time    0.0687
     EDDAV:  cpu time   18.6435: real time   18.6808
       DOS:  cpu time    0.0120: real time    0.0120
    CHARGE:  cpu time    5.0145: real time    5.0206
    MIXING:  cpu time    2.1515: real time    2.1543
    --------------------------------------------
      LOOP:  cpu time   67.0808: real time   67.1705

 eigenvalue-minimisations  :    32
 total energy-change (2. order) :-0.8614909E-06  (-0.1614037E-08)
 number of electron      18.0000000 magnetization 
 augmentation part        0.0637857 magnetization 

 Broyden mixing:
  rms(total) = 0.14507E-04    rms(broyden)= 0.14507E-04
  rms(prec ) = 0.14624E-04
  weight for this iteration     100.00

 eigenvalues of (default mixing * dielectric matrix)
  average eigenvalue GAMMA=   2.1190
  9.6449  6.9777  4.9204  3.2093  2.5798  2.5798  2.3322  1.7810  1.7810  1.7515
  1.2653  1.2653  1.0984  1.0984  0.9812  0.9812  0.9913  0.9913  0.7684  0.7684
  0.8348  0.8348  0.7324  0.6873

 Free energy of the ion-electron system (eV)
  ---------------------------------------------------
  alpha Z        PSCENC =         0.02084913
  Ewald energy   TEWEN  =       564.34750226
  -Hartree energ DENC   =     -1434.11822549
  -exchange      EXHF   =         0.00000000
  -V(xc)+E(xc)   XCENC  =        65.25317667
  PAW double counting   =      9681.32342460    -9679.04265767
  entropy T*S    EENTRO =        -0.00000000
  eigenvalues    EBANDS =      -263.93609523
  atomic energy  EATOM  =      1036.88658833
  Solvation  Ediel_sol  =         0.00000000
  ---------------------------------------------------
  free energy    TOTEN  =       -29.26543741 eV

  energy without entropy =      -29.26543741  energy(sigma->0) =      -29.26543741


--------------------------------------------------------------------------------------------------------




--------------------------------------- Iteration      1(  30)  ---------------------------------------


    POTLOK:  cpu time   41.2989: real time   41.3476
    SETDIJ:  cpu time    0.0485: real time    0.0485
     EDDAV:  cpu time   13.9196: real time   13.9383
       DOS:  cpu time    0.0021: real time    0.0021
    CHARGE:  cpu time    5.0458: real time    5.0520
    MIXING:  cpu time    2.1629: real time    2.1657
    --------------------------------------------
      LOOP:  cpu time   62.4778: real time   62.5541

 eigenvalue-minimisations  :    20
 total energy-change (2. order) :-0.6854793E-06  (-0.1386217E-08)
 number of electron      18.0000000 magnetization 
 augmentation part        0.0637856 magnetization 

 Broyden mixing:
  rms(total) = 0.52979E-05    rms(broyden)= 0.52979E-05
  rms(prec ) = 0.54301E-05
  weight for this iteration     100.00

 eigenvalues of (default mixing * dielectric matrix)
  average eigenvalue GAMMA=   2.1370
  9.7129  7.2684  5.3080  3.6330  2.5862  2.5862  2.5299  2.1253  1.5404  1.5404
  1.3927  1.3927  1.2016  1.2016  0.9956  0.9956  0.7684  0.7684  0.9107  0.9107
  0.9188  0.8812  0.8361  0.7318  0.6880

 Free energy of the ion-electron system (eV)
  ---------------------------------------------------
  alpha Z        PSCENC =         0.02084913
  Ewald energy   TEWEN  =       564.34750226
  -Hartree energ DENC   =     -1434.11825525
  -exchange      EXHF   =         0.00000000
  -V(xc)+E(xc)   XCENC  =        65.25317849
  PAW double counting   =      9681.36640250    -9679.08563583
  entropy T*S    EENTRO =        -0.00000000
  eigenvalues    EBANDS =      -263.93606772
  atomic energy  EATOM  =      1036.88658833
  Solvation  Ediel_sol  =         0.00000000
  ---------------------------------------------------
  free energy    TOTEN  =       -29.26543810 eV

  energy without entropy =      -29.26543810  energy(sigma->0) =      -29.26543810


--------------------------------------------------------------------------------------------------------




--------------------------------------- Iteration      1(  31)  ---------------------------------------


    POTLOK:  cpu time   41.1578: real time   41.2089
    SETDIJ:  cpu time    0.0680: real time    0.0681
     EDDAV:  cpu time   13.9192: real time   13.9428
       DOS:  cpu time    0.0199: real time    0.0199
    CHARGE:  cpu time    5.0333: real time    5.0394
    MIXING:  cpu time    2.2507: real time    2.2536
    --------------------------------------------
      LOOP:  cpu time   62.4489: real time   62.5327

 eigenvalue-minimisations  :    20
 total energy-change (2. order) :-0.3051719E-06  (-0.1269477E-08)
 number of electron      18.0000000 magnetization 
 augmentation part        0.0637855 magnetization 

 Broyden mixing:
  rms(total) = 0.54263E-05    rms(broyden)= 0.54263E-05
  rms(prec ) = 0.54950E-05
  weight for this iteration     100.00

 eigenvalues of (default mixing * dielectric matrix)
  average eigenvalue GAMMA=   2.1552
  9.7260  7.5019  5.5378  3.9145  2.8410  2.5271  2.5271  2.3533  1.6976  1.6976
  1.5763  1.3143  1.3143  1.1509  0.9877  0.9877  0.9564  0.9564  1.0061  0.7684
  0.7684  0.8752  0.8752  0.6860  0.7328  0.7562

 Free energy of the ion-electron system (eV)
  ---------------------------------------------------
  alpha Z        PSCENC =         0.02084913
  Ewald energy   TEWEN  =       564.34750226
  -Hartree energ DENC   =     -1434.11827238
  -exchange      EXHF   =         0.00000000
  -V(xc)+E(xc)   XCENC  =        65.25317926
  PAW double counting   =      9681.36394269    -9679.08317648
  entropy T*S    EENTRO =        -0.00000000
  eigenvalues    EBANDS =      -263.93605120
  atomic energy  EATOM  =      1036.88658833
  Solvation  Ediel_sol  =         0.00000000
  ---------------------------------------------------
  free energy    TOTEN  =       -29.26543840 eV

  energy without entropy =      -29.26543840  energy(sigma->0) =      -29.26543840


--------------------------------------------------------------------------------------------------------




--------------------------------------- Iteration      1(  32)  ---------------------------------------


    POTLOK:  cpu time   41.1951: real time   41.2399
    SETDIJ:  cpu time    0.0624: real time    0.0624
     EDDAV:  cpu time   18.6018: real time   18.6263
       DOS:  cpu time    0.0299: real time    0.0299
    CHARGE:  cpu time    5.0652: real time    5.0712
    MIXING:  cpu time    2.3125: real time    2.3155
    --------------------------------------------
      LOOP:  cpu time   67.2669: real time   67.3452

 eigenvalue-minimisations  :    32
 total energy-change (2. order) :-0.2277889E-06  (-0.1115584E-08)
 number of electron      18.0000000 magnetization 
 augmentation part        0.0637856 magnetization 

 Broyden mixing:
  rms(total) = 0.22753E-05    rms(broyden)= 0.22753E-05
  rms(prec ) = 0.23156E-05
  weight for this iteration     100.00

 eigenvalues of (default mixing * dielectric matrix)
  average eigenvalue GAMMA=   2.1570
  9.7470  7.6382  5.7731  4.1501  2.9613  2.4757  2.4757  2.4176  1.6764  1.6764
  1.6464  1.6464  1.1984  1.1984  1.1105  1.1105  0.9763  0.9763  0.9802  0.9802
  0.7684  0.7684  0.8518  0.8518  0.6867  0.7331  0.7647

 Free energy of the ion-electron system (eV)
  ---------------------------------------------------
  alpha Z        PSCENC =         0.02084913
  Ewald energy   TEWEN  =       564.34750226
  -Hartree energ DENC   =     -1434.11823893
  -exchange      EXHF   =         0.00000000
  -V(xc)+E(xc)   XCENC  =        65.25317751
  PAW double counting   =      9681.36267494    -9679.08190844
  entropy T*S    EENTRO =        -0.00000000
  eigenvalues    EBANDS =      -263.93608342
  atomic energy  EATOM  =      1036.88658833
  Solvation  Ediel_sol  =         0.00000000
  ---------------------------------------------------
  free energy    TOTEN  =       -29.26543863 eV

  energy without entropy =      -29.26543863  energy(sigma->0) =      -29.26543863


--------------------------------------------------------------------------------------------------------




--------------------------------------- Iteration      1(  33)  ---------------------------------------


    POTLOK:  cpu time   41.1197: real time   41.1654
    SETDIJ:  cpu time    0.0476: real time    0.0476
     EDDAV:  cpu time   13.8866: real time   13.9051
       DOS:  cpu time    0.0176: real time    0.0177
    --------------------------------------------
      LOOP:  cpu time   55.0716: real time   55.1358

 eigenvalue-minimisations  :    20
 total energy-change (2. order) :-0.9331256E-07  (-0.1054495E-08)
 number of electron      18.0000000 magnetization 
 augmentation part        0.0637856 magnetization 

 Free energy of the ion-electron system (eV)
  ---------------------------------------------------
  alpha Z        PSCENC =         0.02084913
  Ewald energy   TEWEN  =       564.34750226
  -Hartree energ DENC   =     -1434.11820355
  -exchange      EXHF   =         0.00000000
  -V(xc)+E(xc)   XCENC  =        65.25317565
  PAW double counting   =      9681.36179235    -9679.08102545
  entropy T*S    EENTRO =        -0.00000000
  eigenvalues    EBANDS =      -263.93611744
  atomic energy  EATOM  =      1036.88658833
  Solvation  Ediel_sol  =         0.00000000
  ---------------------------------------------------
  free energy    TOTEN  =       -29.26543872 eV

  energy without entropy =      -29.26543872  energy(sigma->0) =      -29.26543872


--------------------------------------------------------------------------------------------------------




 average (electrostatic) potential at core
  the test charge radii are     0.4325  0.5770  0.5955
  (the norm of the test charge is              1.0000)
       1 -47.6416       2 -47.6205       3 -89.3613       4-119.5632       5-122.7554
 
 
 
 E-fermi :  -7.1160     XC(G=0):  -0.0355     alpha+bet : -0.0075


 k-point     1 :       0.0000    0.0000    0.0000
  band No.  band energies     occupation 
      1     -29.4183      2.00000
      2     -25.3233      2.00000
      3     -14.4028      2.00000
      4     -13.1005      2.00000
      5     -11.9855      2.00000
      6     -11.9844      2.00000
      7      -9.3113      2.00000
      8      -9.2425      2.00000
      9      -7.1996      2.00000
     10      -2.3011      0.00000
     11      -2.2998      0.00000
     12      -0.9681      0.00000
     13      -0.0253      0.00000
     14       0.0204      0.00000


--------------------------------------------------------------------------------------------------------


 soft charge-density along one line, spin component            1
         0         1         2         3         4         5         6         7         8         9
 total charge-density along one line
 
 pseudopotential strength for first ion, spin component:            1
 -2.534  -5.389  -0.003  -0.010   0.000
 -5.389 -11.434  -0.007  -0.022   0.001
 -0.003  -0.007  -1.387   0.007  -0.000
 -0.010  -0.022   0.007  -1.366  -0.001
  0.000   0.001  -0.000  -0.001  -1.390
 total augmentation occupancy for first ion, spin component:            1
  4.229  -0.793   0.098   0.362  -0.011
 -0.793   0.177  -0.017  -0.069   0.002
  0.098  -0.017   0.009   0.006  -0.000
  0.362  -0.069   0.006   0.032  -0.001
 -0.011   0.002  -0.000  -0.001   0.011


------------------------ aborting loop because EDIFF is reached ----------------------------------------



 DIPCOR: dipole corrections for dipol
 direction  1 min pos   478, direction  2 min pos   555, direction  3 min pos   525,
 dipolmoment          -0.011670     -0.212623      0.292611 electrons x Angstroem
 Tr[quadrupol]         8.680888

 energy correction for charged system         0.000000 eV
 dipol+quadrupol energy correction            0.000092 eV
 added-field ion interaction          0.000000 eV  (added to PSCEN)

 
  *************** adding dipol energy to TOTEN NOW **************** 
    CHARGE:  cpu time    4.9804: real time    4.9864
    FORLOC:  cpu time    2.4415: real time    2.4436
    FORNL :  cpu time    0.6808: real time    0.6819
    STRESS:  cpu time    8.6463: real time    8.6568
    FORCOR:  cpu time   39.8902: real time   39.9388
    FORHAR:  cpu time   12.3036: real time   12.3212
    MIXING:  cpu time    2.3888: real time    2.3920
    OFIELD:  cpu time    0.0000: real time    0.0000

  FORCE on cell =-STRESS in cart. coord.  units (eV):
  Direction    XX          YY          ZZ          XY          YZ          ZX
  --------------------------------------------------------------------------------------
  Alpha Z     0.02085     0.02085     0.02085
  Ewald     -63.42346   602.31407    25.45635     6.68863    30.63829    -2.57931
  Hartree   350.08762   717.97301   366.05758     2.66017     7.92286    -0.46051
  E(xc)     -83.11842   -81.85727   -82.69795     0.01729     0.10361    -0.01248
  Local    -647.66954 -1628.51876  -723.16448    -8.82923   -30.67410     2.17733
  n-local   -27.41433   -27.55396   -23.57047    -0.07743     1.37401    -0.10855
  augment     1.68189     1.23953     1.08987     0.00050    -0.13851     0.01764
  Kinetic   469.83098   416.33084   437.16267    -0.46630    -9.10572     0.95572
  Fock        0.00000     0.00000     0.00000     0.00000     0.00000     0.00000
  -------------------------------------------------------------------------------------
  Total      -0.00442    -0.05168     0.35444    -0.00638     0.12044    -0.01018
  in kB      -0.00017    -0.00193     0.01324    -0.00024     0.00450    -0.00038
  external pressure =        0.00 kB  Pullay stress =        0.00 kB


 VOLUME and BASIS-vectors are now :
 -----------------------------------------------------------------------------
  energy-cutoff  :     2000.00
  volume of cell :    42875.00
      direct lattice vectors                 reciprocal lattice vectors
    35.000000000  0.000000000  0.000000000     0.028571429  0.000000000  0.000000000
     0.000000000 35.000000000  0.000000000     0.000000000  0.028571429  0.000000000
     0.000000000  0.000000000 35.000000000     0.000000000  0.000000000  0.028571429

  length of vectors
    35.000000000 35.000000000 35.000000000     0.028571429  0.028571429  0.028571429


 FORCES acting on ions
    electron-ion (+dipol)            ewald-force                    non-local-force                 convergence-correction
 -----------------------------------------------------------------------------------------------
   -.250E+01 0.313E+02 0.869E+02   0.275E+01 -.338E+02 -.956E+02   -.240E+00 0.238E+01 0.826E+01   0.479E-07 -.285E-06 -.190E-05
   -.991E+00 -.779E+02 -.340E+01   0.109E+01 0.870E+02 0.370E+01   -.974E-01 -.861E+01 -.264E+00   0.972E-08 0.204E-05 0.132E-06
   -.462E+01 -.257E+03 0.176E+00   0.513E+01 0.283E+03 -.239E+00   -.513E+00 -.270E+02 0.665E-01   -.818E-07 -.349E-05 0.130E-05
   0.222E+01 0.804E+02 -.496E+02   -.396E+01 -.112E+03 0.907E+02   0.172E+01 0.316E+02 -.408E+02   -.988E-07 0.289E-05 0.216E-06
   0.405E+01 0.174E+03 -.124E+01   -.502E+01 -.224E+03 0.140E+01   0.972E+00 0.506E+02 -.166E+00   -.634E-06 -.734E-05 0.119E-05
 -----------------------------------------------------------------------------------------------
   -.185E+01 -.490E+02 0.329E+02   -.888E-15 -.284E-13 -.151E-13   0.185E+01 0.490E+02 -.329E+02   -.757E-06 -.618E-05 0.935E-06
 
 
 POSITION                                       TOTAL-FORCE (eV/Angst)
 -----------------------------------------------------------------------------------
      0.02749      1.74109     34.06848         0.010922     -0.129088     -0.385707
      0.01191      2.93850     34.99851         0.003557      0.435299      0.031454
      0.02959      7.27724     34.99666        -0.007336     -0.363733      0.002998
      0.00000      1.97721      0.00000        -0.014768     -0.286813      0.355278
      0.00801      6.13849     34.99892         0.007624      0.344335     -0.004023
 -----------------------------------------------------------------------------------
    total drift:                                0.000015      0.000004      0.000017


--------------------------------------------------------------------------------------------------------



  FREE ENERGIE OF THE ION-ELECTRON SYSTEM (eV)
  ---------------------------------------------------
  free  energy   TOTEN  =       -29.26534660 eV

  energy  without entropy=      -29.26534660  energy(sigma->0) =      -29.26534660
 


--------------------------------------------------------------------------------------------------------


    POTLOK:  cpu time   40.9877: real time   41.0340


--------------------------------------------------------------------------------------------------------


 writing wavefunctions
     LOOP+:  cpu time 2824.7370: real time 2829.4774
    4ORBIT:  cpu time    0.0000: real time    0.0000

 total amount of memory used by VASP MPI-rank0  7814025. kBytes
=======================================================================

   base      :      30000. kBytes
   nonl-proj :     148031. kBytes
   fftplans  :    2602168. kBytes
   grid      :    4972871. kBytes
   one-center:          1. kBytes
   wavefun   :      60954. kBytes
 
  
  
 General timing and accounting informations for this job:
 ========================================================
  
                  Total CPU time used (sec):     3644.881
                            User time (sec):     3405.824
                          System time (sec):      239.057
                         Elapsed time (sec):     3653.767
  
                   Maximum memory used (kb):    10408168.
                   Average memory used (kb):           0.
  
                          Minor page faults:    176189503
                          Major page faults:          237
                 Voluntary context switches:         3463
