 vasp.6.1.2 22Jul20 (build Jan  5 2021 21:18:56) complex                         
 executed on             LinuxPGI date 2021.01.27  10:26:53
 running on   32 total cores
 distrk:  each k-point on   32 cores,    1 groups
 distr:  one band on NCORE=   8 cores,    4 groups


--------------------------------------------------------------------------------------------------------


 INCAR:
 POTCAR:    PAW_PBE H_s 15May2010                 
 POTCAR:    PAW_PBE O_s 07Sep2000                 
 POTCAR:    PAW_PBE H_s 15May2010                 
   VRHFIN =H: ultrasoft test                                                                        
   LEXCH  = PE                                                                                      
   EATOM  =    12.4884 eV,    0.9179 Ry                                                             
                                                                                                    
   TITEL  = PAW_PBE H_s 15May2010                                                                   
   LULTRA =        F    use ultrasoft PP ?                                                          
   IUNSCR =        0    unscreen: 0-lin 1-nonlin 2-no                                               
   RPACOR =    0.000    partial core radius                                                         
   POMASS =    1.000; ZVAL   =    1.000    mass and valenz                                          
   RCORE  =    1.300    outmost cutoff radius                                                       
   RWIGS  =    0.700; RWIGS  =    0.370    wigner-seitz radius (au A)                               
   ENMAX  =  200.000; ENMIN  =  150.000 eV                                                          
   RCLOC  =    0.701    cutoff for local pot                                                        
   LCOR   =        T    correct aug charges                                                         
   LPAW   =        T    paw PP                                                                      
   EAUG   =  300.000                                                                                
   RMAX   =    1.330    core radius for proj-oper                                                   
   RAUG   =    1.200    factor for augmentation sphere                                              
   RDEP   =    1.337    radius for radial grids                                                     
   RDEPT  =    1.114    core radius for aug-charge                                                  
                                                                                                    
   Atomic configuration                                                                             
    2 entries                                                                                       
     n  l   j            E        occ.                                                              
     1  0  0.50        -6.4927   1.0000                                                             
     2  1  0.50        -3.4015   0.0000                                                             
   Description                                                                                      
     l       E           TYP  RCUT    TYP  RCUT                                                     
     0     -6.4927494     23  1.300                                                                 
     0      6.8029130     23  1.300                                                                 
     1     -4.0817478     23  1.300                                                                 
  local pseudopotential read in
  atomic valenz-charges read in
  non local Contribution for L=            0  read in
    real space projection operators read in
  non local Contribution for L=            0  read in
    real space projection operators read in
  non local Contribution for L=            1  read in
    real space projection operators read in
    PAW grid and wavefunctions read in
 
   number of l-projection  operators is LMAX  =            3
   number of lm-projection operators is LMMAX =            5
 
 POTCAR:    PAW_PBE O_s 07Sep2000                 
   VRHFIN =O: s2p4                                                                                  
   LEXCH  = PE                                                                                      
   EATOM  =   432.3788 eV,   31.7789 Ry                                                             
                                                                                                    
   TITEL  = PAW_PBE O_s 07Sep2000                                                                   
   LULTRA =        F    use ultrasoft PP ?                                                          
   IUNSCR =        0    unscreen: 0-lin 1-nonlin 2-no                                               
   RPACOR =    0.000    partial core radius                                                         
   POMASS =   16.000; ZVAL   =    6.000    mass and valenz                                          
   RCORE  =    1.850    outmost cutoff radius                                                       
   RWIGS  =    1.700; RWIGS  =    0.900    wigner-seitz radius (au A)                               
   ENMAX  =  282.853; ENMIN  =  212.140 eV                                                          
   RCLOC  =    0.804    cutoff for local pot                                                        
   LCOR   =        T    correct aug charges                                                         
   LPAW   =        T    paw PP                                                                      
   EAUG   =  412.352                                                                                
   RMAX   =    1.897    core radius for proj-oper                                                   
   RAUG   =    1.300    factor for augmentation sphere                                              
   RDEP   =    1.878    radius for radial grids                                                     
   RDEPT  =    1.572    core radius for aug-charge                                                  
                                                                                                    
   Atomic configuration                                                                             
    4 entries                                                                                       
     n  l   j            E        occ.                                                              
     1  0  0.50      -514.6923   2.0000                                                             
     2  0  0.50       -23.9615   2.0000                                                             
     2  1  0.50        -9.0305   4.0000                                                             
     3  2  1.50        -1.3606   0.0000                                                             
   Description                                                                                      
     l       E           TYP  RCUT    TYP  RCUT                                                     
     0    -23.9615315     23  1.500                                                                 
     0    -25.3221141     23  1.500                                                                 
     1     -9.0304908     23  1.850                                                                 
     1     -7.3935399     23  1.850                                                                 
  local pseudopotential read in
  atomic valenz-charges read in
  non local Contribution for L=            0  read in
    real space projection operators read in
  non local Contribution for L=            0  read in
    real space projection operators read in
  non local Contribution for L=            1  read in
    real space projection operators read in
  non local Contribution for L=            1  read in
    real space projection operators read in
    PAW grid and wavefunctions read in
 
   number of l-projection  operators is LMAX  =            4
   number of lm-projection operators is LMMAX =            8
 
  PAW_PBE H_s 15May2010                 :
 energy of atom  1       EATOM=  -12.4884
 kinetic energy error for atom=    0.0000 (will be added to EATOM!!)
  PAW_PBE O_s 07Sep2000                 :
 energy of atom  2       EATOM= -432.3788
 kinetic energy error for atom=    0.0004 (will be added to EATOM!!)
 
 
 POSCAR:  H  O
  positions in cartesian coordinates
  No initial velocities read in
 exchange correlation table for  LEXCH =        8
   RHO(1)=    0.500       N(1)  =     2000
   RHO(2)=  100.500       N(2)  =     4000
 


--------------------------------------------------------------------------------------------------------


 ion  position               nearest neighbor table
   1  0.001  0.018  0.978-   5 0.96
   2  1.000  0.018  0.022-   5 0.96
   3  0.001  0.131  0.978-   6 0.96
   4  0.000  0.133  0.021-   6 0.96
   5  0.000  0.035  0.000-   1 0.96   2 0.96
   6  0.000  0.115  0.000-   4 0.96   3 0.96
 
  LATTYP: Found a simple cubic cell.
 ALAT       =    35.0000000000
  
  Lattice vectors:
  
 A1 = (  35.0000000000,   0.0000000000,   0.0000000000)
 A2 = (   0.0000000000,  35.0000000000,   0.0000000000)
 A3 = (   0.0000000000,   0.0000000000,  35.0000000000)


Analysis of symmetry for initial positions (statically):
=====================================================================
 Subroutine PRICEL returns:
 Original cell was already a primitive cell.
 

 Routine SETGRP: Setting up the symmetry group for a 
 simple cubic supercell.


 Subroutine GETGRP returns: Found  1 space group operations
 (whereof  1 operations were pure point group operations)
 out of a pool of 48 trial point group operations.


The static configuration has the point symmetry C_1 .


Analysis of symmetry for dynamics (positions and initial velocities):
=====================================================================
 Subroutine PRICEL returns:
 Original cell was already a primitive cell.
 

 Routine SETGRP: Setting up the symmetry group for a 
 simple cubic supercell.


 Subroutine GETGRP returns: Found  1 space group operations
 (whereof  1 operations were pure point group operations)
 out of a pool of 48 trial point group operations.


The dynamic configuration has the point symmetry C_1 .


 Subroutine INISYM returns: Found  1 space group operations
 (whereof  1 operations are pure point group operations),
 and found     1 'primitive' translations


----------------------------------------------------------------------------------------

                                     Primitive cell                                     

  volume of cell :   42875.0000

  direct lattice vectors                    reciprocal lattice vectors
    35.000000000  0.000000000  0.000000000     0.028571429  0.000000000  0.000000000
     0.000000000 35.000000000  0.000000000     0.000000000  0.028571429  0.000000000
     0.000000000  0.000000000 35.000000000     0.000000000  0.000000000  0.028571429

  length of vectors
    35.000000000 35.000000000 35.000000000     0.028571429  0.028571429  0.028571429

  position of ions in fractional coordinates (direct lattice)
     0.000503079  0.018298976  0.978247097
     0.999617776  0.018046666  0.021558586
     0.000848682  0.130896499  0.977571084
     0.000390051  0.132950672  0.020841195
     0.000000000  0.035063029  0.000000000
     0.000000000  0.115063029  0.000000000

  ion indices of the primitive-cell ions
   primitive index   ion index
                 1           1
                 2           2
                 3           3
                 4           4
                 5           5
                 6           6

----------------------------------------------------------------------------------------

 
 
 KPOINTS: automatic mesh                          

Automatic generation of k-mesh.
Space group operators:
 irot       det(A)        alpha          n_x          n_y          n_z        tau_x        tau_y        tau_z
    1     1.000000     0.000000     1.000000     0.000000     0.000000     0.000000     0.000000     0.000000
 
 Subroutine IBZKPT returns following result:
 ===========================================
 
 Found      1 irreducible k-points:
 
 Following reciprocal coordinates:
            Coordinates               Weight
  0.000000  0.000000  0.000000      1.000000
 
 Following cartesian coordinates:
            Coordinates               Weight
  0.000000  0.000000  0.000000      1.000000
 


--------------------------------------------------------------------------------------------------------




 Dimension of arrays:
   k-points           NKPTS =      1   k-points in BZ     NKDIM =      1   number of bands    NBANDS=     12
   number of dos      NEDOS =    301   number of ions     NIONS =      6
   non local maximal  LDIM  =      4   non local SUM 2l+1 LMDIM =      8
   total plane-waves  NPLWV = ******
   max r-space proj   IRMAX =      1   max aug-charges    IRDMAX=  29269
   dimension x,y,z NGX =   378 NGY =  378 NGZ =  378
   dimension x,y,z NGXF=   756 NGYF=  756 NGZF=  756
   support grid    NGXF=   756 NGYF=  756 NGZF=  756
   ions per type =               4   2
   NGX,Y,Z   is equivalent  to a cutoff of  17.95, 17.95, 17.95 a.u.
   NGXF,Y,Z  is equivalent  to a cutoff of  35.91, 35.91, 35.91 a.u.

 SYSTEM =  C                                       
 POSCAR =   H  O                                   

 Startparameter for this run:
   NWRITE =      2    write-flag & timer
   PREC   = acc       normal or accurate (medium, high low for compatibility)
   ISTART =      0    job   : 0-new  1-cont  2-samecut
   ICHARG =      2    charge: 1-file 2-atom 10-const
   ISPIN  =      1    spin polarized calculation?
   LNONCOLLINEAR =      F non collinear calculations
   LSORBIT =      F    spin-orbit coupling
   INIWAV =      1    electr: 0-lowe 1-rand  2-diag
   LASPH  =      T    aspherical Exc in radial PAW
   METAGGA=      F    non-selfconsistent MetaGGA calc.

 Electronic Relaxation 1
   ENCUT  = 1000.0 eV  73.50 Ry    8.57 a.u.  90.25 90.25 90.25*2*pi/ulx,y,z
   ENINI  = 1000.0     initial cutoff
   ENAUG  =  412.4 eV  augmentation charge cutoff
   NELM   =     60;   NELMIN=  2; NELMDL= -5     # of ELM steps 
   EDIFF  = 0.1E-06   stopping-criterion for ELM
   LREAL  =      F    real-space projection
   NLSPLINE    = F    spline interpolate recip. space projectors
   LCOMPAT=      F    compatible to vasp.4.4
   GGA_COMPAT  = T    GGA compatible to vasp.4.4-vasp.4.6
   LMAXPAW     = -100 max onsite density
   LMAXMIX     =    2 max onsite mixed and CHGCAR
   VOSKOWN=      0    Vosko Wilk Nusair interpolation
   ROPT   =    0.00000   0.00000
 Ionic relaxation
   EDIFFG = 0.1E-05   stopping-criterion for IOM
   NSW    =      0    number of steps for IOM
   NBLOCK =      1;   KBLOCK =      1    inner block; outer block 
   IBRION =     -1    ionic relax: 0-MD 1-quasi-New 2-CG
   NFREE  =      0    steps in history (QN), initial steepest desc. (CG)
   ISIF   =      2    stress and relaxation
   IWAVPR =     10    prediction:  0-non 1-charg 2-wave 3-comb
   ISYM   =      2    0-nonsym 1-usesym 2-fastsym
   LCORR  =      T    Harris-Foulkes like correction to forces

   POTIM  = 0.5000    time-step for ionic-motion
   TEIN   =    0.0    initial temperature
   TEBEG  =    0.0;   TEEND  =   0.0 temperature during run
   SMASS  =  -3.00    Nose mass-parameter (am)
   estimated Nose-frequenzy (Omega)   =  0.10E-29 period in steps = 0.13E+47 mass=  -0.280E-25a.u.
   SCALEE = 1.0000    scale energy and forces
   NPACO  =    256;   APACO  = 16.0  distance and # of slots for P.C.
   PSTRESS=    0.0 pullay stress

  Mass of Ions in am
   POMASS =   1.00 16.00
  Ionic Valenz
   ZVAL   =   1.00  6.00
  Atomic Wigner-Seitz radii
   RWIGS  =  -1.00 -1.00
  virtual crystal weights 
   VCA    =   1.00  1.00
   NELECT =      16.0000    total number of electrons
   NUPDOWN=      -1.0000    fix difference up-down

 DOS related values:
   EMIN   =  10.00;   EMAX   =-10.00  energy-range for DOS
   EFERMI =   0.00
   ISMEAR =     0;   SIGMA  =   0.01  broadening in eV -4-tet -1-fermi 0-gaus

 Electronic relaxation 2 (details)
   IALGO  =     38    algorithm
   LDIAG  =      T    sub-space diagonalisation (order eigenvalues)
   LSUBROT=      F    optimize rotation matrix (better conditioning)
   TURBO    =      0    0=normal 1=particle mesh
   IRESTART =      0    0=no restart 2=restart with 2 vectors
   NREBOOT  =      0    no. of reboots
   NMIN     =      0    reboot dimension
   EREF     =   0.00    reference energy to select bands
   IMIX   =      4    mixing-type and parameters
     AMIX     =   0.40;   BMIX     =  1.00
     AMIX_MAG =   1.60;   BMIX_MAG =  1.00
     AMIN     =   0.10
     WC   =   100.;   INIMIX=   1;  MIXPRE=   1;  MAXMIX= -45

 Intra band minimization:
   WEIMIN = 0.0000     energy-eigenvalue tresh-hold
   EBREAK =  0.21E-08  absolut break condition
   DEPER  =   0.30     relativ break condition  

   TIME   =   0.40     timestep for ELM

  volume/ion in A,a.u.               =    7145.83     48222.46
  Fermi-wavevector in a.u.,A,eV,Ry     =   0.117864  0.222730  0.189010  0.013892
  Thomas-Fermi vector in A             =   0.732055
 
 Write flags
   LWAVE        =      T    write WAVECAR
   LDOWNSAMPLE  =      F    k-point downsampling of WAVECAR
   LCHARG       =      T    write CHGCAR
   LVTOT        =      F    write LOCPOT, total local potential
   LVHAR        =      F    write LOCPOT, Hartree potential only
   LELF         =      F    write electronic localiz. function (ELF)
   LORBIT       =      0    0 simple, 1 ext, 2 COOP (PROOUT), +10 PAW based schemes


 Dipole corrections
   LMONO  =      F    monopole corrections only (constant potential shift)
   LDIPOL =      F    correct potential (dipole corrections)
   IDIPOL =      4    1-x, 2-y, 3-z, 4-all directions 
   EPSILON=  1.0000000 bulk dielectric constant

 Exchange correlation treatment:
   GGA     =    --    GGA type
   LEXCH   =     8    internal setting for exchange type
   VOSKOWN=      0    Vosko Wilk Nusair interpolation
   LHFCALC =     F    Hartree Fock is set to
   LHFONE  =     F    Hartree Fock one center treatment
   AEXX    =    0.0000 exact exchange contribution

 Linear response parameters
   LEPSILON=     F    determine dielectric tensor
   LRPA    =     F    only Hartree local field effects (RPA)
   LNABLA  =     F    use nabla operator in PAW spheres
   LVEL    =     F    velocity operator in full k-point grid
   LINTERFAST=   F  fast interpolation
   KINTER  =     0    interpolate to denser k-point grid
   CSHIFT  =0.1000    complex shift for real part using Kramers Kronig
   OMEGAMAX=  -1.0    maximum frequency
   DEG_THRESHOLD= 0.2000000E-02 threshold for treating states as degnerate
   RTIME   =   -0.100 relaxation time in fs
  (WPLASMAI=    0.000 imaginary part of plasma frequency in eV, 0.658/RTIME)
   DFIELD  = 0.0000000 0.0000000 0.0000000 field for delta impulse in time
 
 Orbital magnetization related:
   ORBITALMAG=     F  switch on orbital magnetization
   LCHIMAG   =     F  perturbation theory with respect to B field
   DQ        =  0.001000  dq finite difference perturbation B field
   LLRAUG    =     F  two centre corrections for induced B field



--------------------------------------------------------------------------------------------------------


 Static calculation
 charge density and potential will be updated during run
 non-spin polarized calculation
 Variant of blocked Davidson
 Davidson routine will perform the subspace rotation
 perform sub-space diagonalisation
    after iterative eigenvector-optimisation
 modified Broyden-mixing scheme, WC =      100.0
 initial mixing is a Kerker type mixing with AMIX =  0.4000 and BMIX =      1.0000
 Hartree-type preconditioning will be used
 using additional bands             4
 reciprocal scheme for non local part
 calculate Harris-corrections to forces 
   (improved forces if not selfconsistent)
 use gradient corrections 
 use of overlap-Matrix (Vanderbilt PP)
 Gauss-broadening in eV      SIGMA  =   0.01


--------------------------------------------------------------------------------------------------------


  energy-cutoff  :     1000.00
  volume of cell :    42875.00
      direct lattice vectors                 reciprocal lattice vectors
    35.000000000  0.000000000  0.000000000     0.028571429  0.000000000  0.000000000
     0.000000000 35.000000000  0.000000000     0.000000000  0.028571429  0.000000000
     0.000000000  0.000000000 35.000000000     0.000000000  0.000000000  0.028571429

  length of vectors
    35.000000000 35.000000000 35.000000000     0.028571429  0.028571429  0.028571429


 
 k-points in units of 2pi/SCALE and weight: automatic mesh                          
   0.00000000  0.00000000  0.00000000       1.000
 
 k-points in reciprocal lattice and weights: automatic mesh                          
   0.00000000  0.00000000  0.00000000       1.000
 
 position of ions in fractional coordinates (direct lattice) 
   0.00050308  0.01829898  0.97824710
   0.99961778  0.01804667  0.02155859
   0.00084868  0.13089650  0.97757108
   0.00039005  0.13295067  0.02084119
   0.00000000  0.03506303  0.00000000
   0.00000000  0.11506303  0.00000000
 
 position of ions in cartesian coordinates  (Angst):
   0.01760775  0.64046416 34.23864840
  34.98662216  0.63163330  0.75455051
   0.02970387  4.58137746 34.21498793
   0.01365177  4.65327352  0.72944182
   0.00000000  1.22720600  0.00000000
   0.00000000  4.02720600  0.00000000
 


--------------------------------------------------------------------------------------------------------


 k-point   1 :   0.0000 0.0000 0.0000  plane waves: 3078417

 maximum and minimum number of plane-waves per node :    384834   384776

 maximum number of plane-waves:   3078417
 maximum index in each direction: 
   IXMAX=   90   IYMAX=   90   IZMAX=   90
   IXMIN=  -90   IYMIN=  -90   IZMIN=  -90


 parallel 3D FFT for wavefunctions:
    minimum data exchange during FFTs selected (reduces bandwidth)
 parallel 3D FFT for charge:
    minimum data exchange during FFTs selected (reduces bandwidth)


 total amount of memory used by VASP MPI-rank0  1839751. kBytes
=======================================================================

   base      :      30000. kBytes
   nonl-proj :      86200. kBytes
   fftplans  :     660854. kBytes
   grid      :    1044223. kBytes
   one-center:          3. kBytes
   wavefun   :      18471. kBytes
 
     INWAV:  cpu time    0.0001: real time    0.0000
 Broyden mixing: mesh for mixing (old mesh)
   NGX =181   NGY =181   NGZ =181
  (NGX  =756   NGY  =756   NGZ  =756)
  gives a total of ****** points

 initial charge density was supplied:
 charge density of overlapping atoms calculated
 number of electron      16.0000000 magnetization 
 keeping initial charge density in first step


--------------------------------------------------------------------------------------------------------


 Maximum index for augmentation-charges          1122 (set IRDMAX)


--------------------------------------------------------------------------------------------------------


 First call to EWALD:  gamma=   0.051
 Maximum number of real-space cells 3x 3x 3
 Maximum number of reciprocal cells 3x 3x 3

    FEWALD:  cpu time    0.0008: real time    0.0007


--------------------------------------- Iteration      1(   1)  ---------------------------------------


    POTLOK:  cpu time   11.9050: real time   11.9221
    SETDIJ:  cpu time    0.0524: real time    0.0536
     EDDAV:  cpu time    9.4814: real time    9.5196
       DOS:  cpu time    0.0009: real time    0.0009
    --------------------------------------------
      LOOP:  cpu time   21.4396: real time   21.4962

 eigenvalue-minimisations  :    40
 total energy-change (2. order) : 0.1306022E+03  (-0.2726673E+03)
 number of electron      16.0000000 magnetization 
 augmentation part       16.0000000 magnetization 

 Free energy of the ion-electron system (eV)
  ---------------------------------------------------
  alpha Z        PSCENC =         0.01723541
  Ewald energy   TEWEN  =       528.13919540
  -Hartree energ DENC   =     -1238.22702589
  -exchange      EXHF   =         0.00000000
  -V(xc)+E(xc)   XCENC  =        64.26550502
  PAW double counting   =       700.82501663     -709.28092584
  entropy T*S    EENTRO =        -0.00000000
  eigenvalues    EBANDS =      -129.84704641
  atomic energy  EATOM  =       914.71024870
  Solvation  Ediel_sol  =         0.00000000
  ---------------------------------------------------
  free energy    TOTEN  =       130.60220301 eV

  energy without entropy =      130.60220301  energy(sigma->0) =      130.60220301


--------------------------------------------------------------------------------------------------------




--------------------------------------- Iteration      1(   2)  ---------------------------------------


     EDDAV:  cpu time   10.9256: real time   10.9433
       DOS:  cpu time    0.0016: real time    0.0016
    --------------------------------------------
      LOOP:  cpu time   10.9273: real time   10.9449

 eigenvalue-minimisations  :    48
 total energy-change (2. order) :-0.1259937E+03  (-0.1256272E+03)
 number of electron      16.0000000 magnetization 
 augmentation part       16.0000000 magnetization 

 Free energy of the ion-electron system (eV)
  ---------------------------------------------------
  alpha Z        PSCENC =         0.01723541
  Ewald energy   TEWEN  =       528.13919540
  -Hartree energ DENC   =     -1238.22702589
  -exchange      EXHF   =         0.00000000
  -V(xc)+E(xc)   XCENC  =        64.26550502
  PAW double counting   =       700.82501663     -709.28092584
  entropy T*S    EENTRO =        -0.00000000
  eigenvalues    EBANDS =      -255.84078960
  atomic energy  EATOM  =       914.71024870
  Solvation  Ediel_sol  =         0.00000000
  ---------------------------------------------------
  free energy    TOTEN  =         4.60845982 eV

  energy without entropy =        4.60845982  energy(sigma->0) =        4.60845982


--------------------------------------------------------------------------------------------------------




--------------------------------------- Iteration      1(   3)  ---------------------------------------


     EDDAV:  cpu time    8.7044: real time    8.7186
       DOS:  cpu time    0.0026: real time    0.0026
    --------------------------------------------
      LOOP:  cpu time    8.7070: real time    8.7212

 eigenvalue-minimisations  :    36
 total energy-change (2. order) :-0.3300706E+02  (-0.3055277E+02)
 number of electron      16.0000000 magnetization 
 augmentation part       16.0000000 magnetization 

 Free energy of the ion-electron system (eV)
  ---------------------------------------------------
  alpha Z        PSCENC =         0.01723541
  Ewald energy   TEWEN  =       528.13919540
  -Hartree energ DENC   =     -1238.22702589
  -exchange      EXHF   =         0.00000000
  -V(xc)+E(xc)   XCENC  =        64.26550502
  PAW double counting   =       700.82501663     -709.28092584
  entropy T*S    EENTRO =        -0.00000000
  eigenvalues    EBANDS =      -288.84785437
  atomic energy  EATOM  =       914.71024870
  Solvation  Ediel_sol  =         0.00000000
  ---------------------------------------------------
  free energy    TOTEN  =       -28.39860495 eV

  energy without entropy =      -28.39860495  energy(sigma->0) =      -28.39860495


--------------------------------------------------------------------------------------------------------




--------------------------------------- Iteration      1(   4)  ---------------------------------------


     EDDAV:  cpu time    7.2381: real time    7.2498
       DOS:  cpu time    0.0009: real time    0.0009
    --------------------------------------------
      LOOP:  cpu time    7.2390: real time    7.2508

 eigenvalue-minimisations  :    28
 total energy-change (2. order) :-0.3824065E+01  (-0.3821218E+01)
 number of electron      16.0000000 magnetization 
 augmentation part       16.0000000 magnetization 

 Free energy of the ion-electron system (eV)
  ---------------------------------------------------
  alpha Z        PSCENC =         0.01723541
  Ewald energy   TEWEN  =       528.13919540
  -Hartree energ DENC   =     -1238.22702589
  -exchange      EXHF   =         0.00000000
  -V(xc)+E(xc)   XCENC  =        64.26550502
  PAW double counting   =       700.82501663     -709.28092584
  entropy T*S    EENTRO =        -0.00000000
  eigenvalues    EBANDS =      -292.67191946
  atomic energy  EATOM  =       914.71024870
  Solvation  Ediel_sol  =         0.00000000
  ---------------------------------------------------
  free energy    TOTEN  =       -32.22267004 eV

  energy without entropy =      -32.22267004  energy(sigma->0) =      -32.22267004


--------------------------------------------------------------------------------------------------------




--------------------------------------- Iteration      1(   5)  ---------------------------------------


     EDDAV:  cpu time    7.9918: real time    8.0046
       DOS:  cpu time    0.0018: real time    0.0018
    CHARGE:  cpu time    1.7561: real time    1.7587
    MIXING:  cpu time    0.2052: real time    0.2055
    --------------------------------------------
      LOOP:  cpu time    9.9550: real time    9.9707

 eigenvalue-minimisations  :    32
 total energy-change (2. order) :-0.2435581E-01  (-0.2435391E-01)
 number of electron      15.9999999 magnetization 
 augmentation part        3.2977777 magnetization 

 Broyden mixing:
  rms(total) = 0.24659E+01    rms(broyden)= 0.24659E+01
  rms(prec ) = 0.24836E+01
  weight for this iteration     100.00

 Free energy of the ion-electron system (eV)
  ---------------------------------------------------
  alpha Z        PSCENC =         0.01723541
  Ewald energy   TEWEN  =       528.13919540
  -Hartree energ DENC   =     -1238.22702589
  -exchange      EXHF   =         0.00000000
  -V(xc)+E(xc)   XCENC  =        64.26550502
  PAW double counting   =       700.82501663     -709.28092584
  entropy T*S    EENTRO =        -0.00000000
  eigenvalues    EBANDS =      -292.69627527
  atomic energy  EATOM  =       914.71024870
  Solvation  Ediel_sol  =         0.00000000
  ---------------------------------------------------
  free energy    TOTEN  =       -32.24702586 eV

  energy without entropy =      -32.24702586  energy(sigma->0) =      -32.24702586


--------------------------------------------------------------------------------------------------------




--------------------------------------- Iteration      1(   6)  ---------------------------------------


    POTLOK:  cpu time   11.7084: real time   11.7252
    SETDIJ:  cpu time    0.0526: real time    0.0526
     EDDAV:  cpu time    7.2784: real time    7.2902
       DOS:  cpu time    0.0016: real time    0.0016
    CHARGE:  cpu time    1.6714: real time    1.6739
    MIXING:  cpu time    0.3428: real time    0.3482
    --------------------------------------------
      LOOP:  cpu time   21.0551: real time   21.0916

 eigenvalue-minimisations  :    28
 total energy-change (2. order) : 0.4062247E+01  (-0.1794620E+01)
 number of electron      15.9999999 magnetization 
 augmentation part        2.8042410 magnetization 

 Broyden mixing:
  rms(total) = 0.38088E+01    rms(broyden)= 0.38088E+01
  rms(prec ) = 0.38098E+01
  weight for this iteration     100.00

 eigenvalues of (default mixing * dielectric matrix)
  average eigenvalue GAMMA=   0.5887
  0.5887

 Free energy of the ion-electron system (eV)
  ---------------------------------------------------
  alpha Z        PSCENC =         0.01723541
  Ewald energy   TEWEN  =       528.13919540
  -Hartree energ DENC   =     -1287.47129341
  -exchange      EXHF   =         0.00000000
  -V(xc)+E(xc)   XCENC  =        66.89291285
  PAW double counting   =      1078.53612733    -1089.20922805
  entropy T*S    EENTRO =        -0.00000000
  eigenvalues    EBANDS =      -239.79997750
  atomic energy  EATOM  =       914.71024870
  Solvation  Ediel_sol  =         0.00000000
  ---------------------------------------------------
  free energy    TOTEN  =       -28.18477927 eV

  energy without entropy =      -28.18477927  energy(sigma->0) =      -28.18477927


--------------------------------------------------------------------------------------------------------




--------------------------------------- Iteration      1(   7)  ---------------------------------------


    POTLOK:  cpu time   11.6683: real time   11.6852
    SETDIJ:  cpu time    0.0495: real time    0.0495
     EDDAV:  cpu time    6.5050: real time    6.5155
       DOS:  cpu time    0.0018: real time    0.0018
    CHARGE:  cpu time    1.7087: real time    1.7113
    MIXING:  cpu time    0.2368: real time    0.2371
    --------------------------------------------
      LOOP:  cpu time   20.1701: real time   20.2005

 eigenvalue-minimisations  :    24
 total energy-change (2. order) :-0.2046480E+00  (-0.3175745E-01)
 number of electron      15.9999999 magnetization 
 augmentation part        2.8067161 magnetization 

 Broyden mixing:
  rms(total) = 0.47244E+01    rms(broyden)= 0.47244E+01
  rms(prec ) = 0.47255E+01
  weight for this iteration     100.00

 eigenvalues of (default mixing * dielectric matrix)
  average eigenvalue GAMMA=   1.6247
  0.9693  2.2801

 Free energy of the ion-electron system (eV)
  ---------------------------------------------------
  alpha Z        PSCENC =         0.01723541
  Ewald energy   TEWEN  =       528.13919540
  -Hartree energ DENC   =     -1283.09364846
  -exchange      EXHF   =         0.00000000
  -V(xc)+E(xc)   XCENC  =        66.71038098
  PAW double counting   =       861.10908752     -871.88073047
  entropy T*S    EENTRO =        -0.00000000
  eigenvalues    EBANDS =      -244.10119636
  atomic energy  EATOM  =       914.71024870
  Solvation  Ediel_sol  =         0.00000000
  ---------------------------------------------------
  free energy    TOTEN  =       -28.38942728 eV

  energy without entropy =      -28.38942728  energy(sigma->0) =      -28.38942728


--------------------------------------------------------------------------------------------------------




--------------------------------------- Iteration      1(   8)  ---------------------------------------


    POTLOK:  cpu time   11.6904: real time   11.7072
    SETDIJ:  cpu time    0.0509: real time    0.0510
     EDDAV:  cpu time    7.2744: real time    7.2862
       DOS:  cpu time    0.0028: real time    0.0028
    CHARGE:  cpu time    1.7162: real time    1.7189
    MIXING:  cpu time    0.2436: real time    0.2440
    --------------------------------------------
      LOOP:  cpu time   20.9784: real time   21.0100

 eigenvalue-minimisations  :    28
 total energy-change (2. order) : 0.6407184E+00  (-0.9399531E-01)
 number of electron      15.9999999 magnetization 
 augmentation part        2.7163269 magnetization 

 Broyden mixing:
  rms(total) = 0.57142E+00    rms(broyden)= 0.57142E+00
  rms(prec ) = 0.57237E+00
  weight for this iteration     100.00

 eigenvalues of (default mixing * dielectric matrix)
  average eigenvalue GAMMA=   1.3508
  2.3200  1.1225  0.6098

 Free energy of the ion-electron system (eV)
  ---------------------------------------------------
  alpha Z        PSCENC =         0.01723541
  Ewald energy   TEWEN  =       528.13919540
  -Hartree energ DENC   =     -1310.78605846
  -exchange      EXHF   =         0.00000000
  -V(xc)+E(xc)   XCENC  =        67.92576679
  PAW double counting   =      2439.08914243    -2449.39568079
  entropy T*S    EENTRO =        -0.00000000
  eigenvalues    EBANDS =      -217.44855832
  atomic energy  EATOM  =       914.71024870
  Solvation  Ediel_sol  =         0.00000000
  ---------------------------------------------------
  free energy    TOTEN  =       -27.74870885 eV

  energy without entropy =      -27.74870885  energy(sigma->0) =      -27.74870885


--------------------------------------------------------------------------------------------------------




--------------------------------------- Iteration      1(   9)  ---------------------------------------


    POTLOK:  cpu time   11.6885: real time   11.7059
    SETDIJ:  cpu time    0.0518: real time    0.0518
     EDDAV:  cpu time    7.2636: real time    7.2754
       DOS:  cpu time    0.0021: real time    0.0021
    CHARGE:  cpu time    1.7181: real time    1.7206
    MIXING:  cpu time    0.2344: real time    0.2348
    --------------------------------------------
      LOOP:  cpu time   20.9585: real time   20.9906

 eigenvalue-minimisations  :    28
 total energy-change (2. order) : 0.3080324E-01  (-0.1086814E-01)
 number of electron      15.9999999 magnetization 
 augmentation part        2.7528679 magnetization 

 Broyden mixing:
  rms(total) = 0.13868E+00    rms(broyden)= 0.13868E+00
  rms(prec ) = 0.14000E+00
  weight for this iteration     100.00

 eigenvalues of (default mixing * dielectric matrix)
  average eigenvalue GAMMA=   1.1415
  2.2783  1.0858  0.6009  0.6009

 Free energy of the ion-electron system (eV)
  ---------------------------------------------------
  alpha Z        PSCENC =         0.01723541
  Ewald energy   TEWEN  =       528.13919540
  -Hartree energ DENC   =     -1309.57481067
  -exchange      EXHF   =         0.00000000
  -V(xc)+E(xc)   XCENC  =        67.83019395
  PAW double counting   =      2507.54310561    -2517.66069872
  entropy T*S    EENTRO =        -0.00000000
  eigenvalues    EBANDS =      -218.72237529
  atomic energy  EATOM  =       914.71024870
  Solvation  Ediel_sol  =         0.00000000
  ---------------------------------------------------
  free energy    TOTEN  =       -27.71790561 eV

  energy without entropy =      -27.71790561  energy(sigma->0) =      -27.71790561


--------------------------------------------------------------------------------------------------------




--------------------------------------- Iteration      1(  10)  ---------------------------------------


    POTLOK:  cpu time   11.7350: real time   11.7519
    SETDIJ:  cpu time    0.0532: real time    0.0532
     EDDAV:  cpu time    7.9575: real time    7.9706
       DOS:  cpu time    0.0022: real time    0.0022
    CHARGE:  cpu time    1.7902: real time    1.7928
    MIXING:  cpu time    0.2440: real time    0.2444
    --------------------------------------------
      LOOP:  cpu time   21.7821: real time   21.8151

 eigenvalue-minimisations  :    32
 total energy-change (2. order) :-0.3139498E-03  (-0.2430689E-03)
 number of electron      15.9999999 magnetization 
 augmentation part        2.7557676 magnetization 

 Broyden mixing:
  rms(total) = 0.12619E+00    rms(broyden)= 0.12619E+00
  rms(prec ) = 0.12735E+00
  weight for this iteration     100.00

 eigenvalues of (default mixing * dielectric matrix)
  average eigenvalue GAMMA=   1.6267
  2.8423  2.4590  1.2057  0.8134  0.8134

 Free energy of the ion-electron system (eV)
  ---------------------------------------------------
  alpha Z        PSCENC =         0.01723541
  Ewald energy   TEWEN  =       528.13919540
  -Hartree energ DENC   =     -1309.88667536
  -exchange      EXHF   =         0.00000000
  -V(xc)+E(xc)   XCENC  =        67.83506467
  PAW double counting   =      2493.74939219    -2503.86760473
  entropy T*S    EENTRO =        -0.00000000
  eigenvalues    EBANDS =      -218.41507584
  atomic energy  EATOM  =       914.71024870
  Solvation  Ediel_sol  =         0.00000000
  ---------------------------------------------------
  free energy    TOTEN  =       -27.71821956 eV

  energy without entropy =      -27.71821956  energy(sigma->0) =      -27.71821956


--------------------------------------------------------------------------------------------------------




--------------------------------------- Iteration      1(  11)  ---------------------------------------


    POTLOK:  cpu time   11.7181: real time   11.7354
    SETDIJ:  cpu time    0.0524: real time    0.0524
     EDDAV:  cpu time    6.5185: real time    6.5292
       DOS:  cpu time    0.0033: real time    0.0033
    CHARGE:  cpu time    1.7816: real time    1.7842
    MIXING:  cpu time    0.2591: real time    0.2595
    --------------------------------------------
      LOOP:  cpu time   20.3330: real time   20.3640

 eigenvalue-minimisations  :    24
 total energy-change (2. order) :-0.1701670E-02  (-0.2326504E-02)
 number of electron      15.9999999 magnetization 
 augmentation part        2.7670828 magnetization 

 Broyden mixing:
  rms(total) = 0.34710E-01    rms(broyden)= 0.34710E-01
  rms(prec ) = 0.35627E-01
  weight for this iteration     100.00

 eigenvalues of (default mixing * dielectric matrix)
  average eigenvalue GAMMA=   1.5183
  2.6981  2.6981  1.1193  0.9345  0.9345  0.7254

 Free energy of the ion-electron system (eV)
  ---------------------------------------------------
  alpha Z        PSCENC =         0.01723541
  Ewald energy   TEWEN  =       528.13919540
  -Hartree energ DENC   =     -1312.86507369
  -exchange      EXHF   =         0.00000000
  -V(xc)+E(xc)   XCENC  =        67.91212434
  PAW double counting   =      2491.92152328    -2502.00142328
  entropy T*S    EENTRO =        -0.00000000
  eigenvalues    EBANDS =      -215.55375139
  atomic energy  EATOM  =       914.71024870
  Solvation  Ediel_sol  =         0.00000000
  ---------------------------------------------------
  free energy    TOTEN  =       -27.71992123 eV

  energy without entropy =      -27.71992123  energy(sigma->0) =      -27.71992123


--------------------------------------------------------------------------------------------------------




--------------------------------------- Iteration      1(  12)  ---------------------------------------


    POTLOK:  cpu time   11.7262: real time   11.7431
    SETDIJ:  cpu time    0.0506: real time    0.0506
     EDDAV:  cpu time    7.2547: real time    7.2668
       DOS:  cpu time    0.0034: real time    0.0034
    CHARGE:  cpu time    1.7174: real time    1.7199
    MIXING:  cpu time    0.2714: real time    0.2719
    --------------------------------------------
      LOOP:  cpu time   21.0238: real time   21.0558

 eigenvalue-minimisations  :    28
 total energy-change (2. order) :-0.3275149E-02  (-0.8281805E-04)
 number of electron      15.9999999 magnetization 
 augmentation part        2.7658175 magnetization 

 Broyden mixing:
  rms(total) = 0.16803E-01    rms(broyden)= 0.16803E-01
  rms(prec ) = 0.18001E-01
  weight for this iteration     100.00

 eigenvalues of (default mixing * dielectric matrix)
  average eigenvalue GAMMA=   1.5751
  3.4204  2.4449  1.2913  1.2913  1.0531  0.7625  0.7625

 Free energy of the ion-electron system (eV)
  ---------------------------------------------------
  alpha Z        PSCENC =         0.01723541
  Ewald energy   TEWEN  =       528.13919540
  -Hartree energ DENC   =     -1313.59371272
  -exchange      EXHF   =         0.00000000
  -V(xc)+E(xc)   XCENC  =        67.92167811
  PAW double counting   =      2482.36865133    -2492.44586933
  entropy T*S    EENTRO =        -0.00000000
  eigenvalues    EBANDS =      -214.84062327
  atomic energy  EATOM  =       914.71024870
  Solvation  Ediel_sol  =         0.00000000
  ---------------------------------------------------
  free energy    TOTEN  =       -27.72319638 eV

  energy without entropy =      -27.72319638  energy(sigma->0) =      -27.72319638


--------------------------------------------------------------------------------------------------------




--------------------------------------- Iteration      1(  13)  ---------------------------------------


    POTLOK:  cpu time   11.7465: real time   11.7631
    SETDIJ:  cpu time    0.0540: real time    0.0540
     EDDAV:  cpu time    7.2491: real time    7.2606
       DOS:  cpu time    0.0017: real time    0.0017
    CHARGE:  cpu time    1.7293: real time    1.7318
    MIXING:  cpu time    0.2708: real time    0.2713
    --------------------------------------------
      LOOP:  cpu time   21.0515: real time   21.0826

 eigenvalue-minimisations  :    28
 total energy-change (2. order) :-0.5861966E-02  (-0.1798749E-03)
 number of electron      15.9999999 magnetization 
 augmentation part        2.7642503 magnetization 

 Broyden mixing:
  rms(total) = 0.17822E-01    rms(broyden)= 0.17822E-01
  rms(prec ) = 0.18226E-01
  weight for this iteration     100.00

 eigenvalues of (default mixing * dielectric matrix)
  average eigenvalue GAMMA=   1.5433
  3.5663  2.4426  1.3771  1.3771  1.1006  0.7356  0.8737  0.8737

 Free energy of the ion-electron system (eV)
  ---------------------------------------------------
  alpha Z        PSCENC =         0.01723541
  Ewald energy   TEWEN  =       528.13919540
  -Hartree energ DENC   =     -1314.80448304
  -exchange      EXHF   =         0.00000000
  -V(xc)+E(xc)   XCENC  =        67.93129292
  PAW double counting   =      2483.71550396    -2493.77523926
  entropy T*S    EENTRO =        -0.00000000
  eigenvalues    EBANDS =      -213.66281244
  atomic energy  EATOM  =       914.71024870
  Solvation  Ediel_sol  =         0.00000000
  ---------------------------------------------------
  free energy    TOTEN  =       -27.72905834 eV

  energy without entropy =      -27.72905834  energy(sigma->0) =      -27.72905834


--------------------------------------------------------------------------------------------------------




--------------------------------------- Iteration      1(  14)  ---------------------------------------


    POTLOK:  cpu time   11.7428: real time   11.7597
    SETDIJ:  cpu time    0.0526: real time    0.0526
     EDDAV:  cpu time    8.7324: real time    8.7462
       DOS:  cpu time    0.0020: real time    0.0020
    CHARGE:  cpu time    1.7912: real time    1.7938
    MIXING:  cpu time    0.2842: real time    0.2847
    --------------------------------------------
      LOOP:  cpu time   22.6052: real time   22.6390

 eigenvalue-minimisations  :    36
 total energy-change (2. order) :-0.3138791E-02  (-0.4539119E-04)
 number of electron      15.9999999 magnetization 
 augmentation part        2.7627263 magnetization 

 Broyden mixing:
  rms(total) = 0.69224E-02    rms(broyden)= 0.69224E-02
  rms(prec ) = 0.74680E-02
  weight for this iteration     100.00

 eigenvalues of (default mixing * dielectric matrix)
  average eigenvalue GAMMA=   1.9569
  5.6047  2.6734  2.2424  2.2424  1.2962  0.7597  0.9900  0.9016  0.9016

 Free energy of the ion-electron system (eV)
  ---------------------------------------------------
  alpha Z        PSCENC =         0.01723541
  Ewald energy   TEWEN  =       528.13919540
  -Hartree energ DENC   =     -1315.24385169
  -exchange      EXHF   =         0.00000000
  -V(xc)+E(xc)   XCENC  =        67.93446455
  PAW double counting   =      2480.73758587    -2490.79800455
  entropy T*S    EENTRO =        -0.00000000
  eigenvalues    EBANDS =      -213.22907083
  atomic energy  EATOM  =       914.71024870
  Solvation  Ediel_sol  =         0.00000000
  ---------------------------------------------------
  free energy    TOTEN  =       -27.73219714 eV

  energy without entropy =      -27.73219714  energy(sigma->0) =      -27.73219714


--------------------------------------------------------------------------------------------------------




--------------------------------------- Iteration      1(  15)  ---------------------------------------


    POTLOK:  cpu time   11.7796: real time   11.7972
    SETDIJ:  cpu time    0.0528: real time    0.0529
     EDDAV:  cpu time    7.2407: real time    7.2525
       DOS:  cpu time    0.0015: real time    0.0015
    CHARGE:  cpu time    1.7345: real time    1.7370
    MIXING:  cpu time    0.2926: real time    0.2930
    --------------------------------------------
      LOOP:  cpu time   21.1017: real time   21.1341

 eigenvalue-minimisations  :    28
 total energy-change (2. order) :-0.5904405E-02  (-0.1060730E-03)
 number of electron      15.9999999 magnetization 
 augmentation part        2.7619806 magnetization 

 Broyden mixing:
  rms(total) = 0.27855E-02    rms(broyden)= 0.27855E-02
  rms(prec ) = 0.30248E-02
  weight for this iteration     100.00

 eigenvalues of (default mixing * dielectric matrix)
  average eigenvalue GAMMA=   1.9088
  5.7449  3.1275  2.4591  1.5889  1.5889  1.0873  0.9376  0.9376  0.7664  0.8501

 Free energy of the ion-electron system (eV)
  ---------------------------------------------------
  alpha Z        PSCENC =         0.01723541
  Ewald energy   TEWEN  =       528.13919540
  -Hartree energ DENC   =     -1315.85694455
  -exchange      EXHF   =         0.00000000
  -V(xc)+E(xc)   XCENC  =        67.92919413
  PAW double counting   =      2477.92462035    -2487.97949100
  entropy T*S    EENTRO =        -0.00000000
  eigenvalues    EBANDS =      -212.62215999
  atomic energy  EATOM  =       914.71024870
  Solvation  Ediel_sol  =         0.00000000
  ---------------------------------------------------
  free energy    TOTEN  =       -27.73810154 eV

  energy without entropy =      -27.73810154  energy(sigma->0) =      -27.73810154


--------------------------------------------------------------------------------------------------------




--------------------------------------- Iteration      1(  16)  ---------------------------------------


    POTLOK:  cpu time   11.7581: real time   11.7752
    SETDIJ:  cpu time    0.0519: real time    0.0519
     EDDAV:  cpu time    9.4890: real time    9.5042
       DOS:  cpu time    0.0029: real time    0.0029
    CHARGE:  cpu time    1.7161: real time    1.7186
    MIXING:  cpu time    0.3297: real time    0.3302
    --------------------------------------------
      LOOP:  cpu time   23.3477: real time   23.3830

 eigenvalue-minimisations  :    40
 total energy-change (2. order) :-0.1225531E-02  (-0.1332219E-04)
 number of electron      15.9999999 magnetization 
 augmentation part        2.7610385 magnetization 

 Broyden mixing:
  rms(total) = 0.44457E-02    rms(broyden)= 0.44457E-02
  rms(prec ) = 0.45677E-02
  weight for this iteration     100.00

 eigenvalues of (default mixing * dielectric matrix)
  average eigenvalue GAMMA=   1.9275
  6.2323  3.3268  2.2252  1.8488  1.8488  1.1974  1.0590  1.0590  0.8313  0.8313
  0.7432

 Free energy of the ion-electron system (eV)
  ---------------------------------------------------
  alpha Z        PSCENC =         0.01723541
  Ewald energy   TEWEN  =       528.13919540
  -Hartree energ DENC   =     -1315.93987311
  -exchange      EXHF   =         0.00000000
  -V(xc)+E(xc)   XCENC  =        67.92972654
  PAW double counting   =      2479.67104605    -2489.72694977
  entropy T*S    EENTRO =        -0.00000000
  eigenvalues    EBANDS =      -212.53995630
  atomic energy  EATOM  =       914.71024870
  Solvation  Ediel_sol  =         0.00000000
  ---------------------------------------------------
  free energy    TOTEN  =       -27.73932707 eV

  energy without entropy =      -27.73932707  energy(sigma->0) =      -27.73932707


--------------------------------------------------------------------------------------------------------




--------------------------------------- Iteration      1(  17)  ---------------------------------------


    POTLOK:  cpu time   11.7558: real time   11.7729
    SETDIJ:  cpu time    0.0562: real time    0.0562
     EDDAV:  cpu time    6.5424: real time    6.5529
       DOS:  cpu time    0.0053: real time    0.0053
    CHARGE:  cpu time    1.7203: real time    1.7228
    MIXING:  cpu time    0.3199: real time    0.3204
    --------------------------------------------
      LOOP:  cpu time   20.3999: real time   20.4306

 eigenvalue-minimisations  :    24
 total energy-change (2. order) :-0.2012688E-02  (-0.1839576E-04)
 number of electron      15.9999999 magnetization 
 augmentation part        2.7619144 magnetization 

 Broyden mixing:
  rms(total) = 0.14531E-02    rms(broyden)= 0.14531E-02
  rms(prec ) = 0.15492E-02
  weight for this iteration     100.00

 eigenvalues of (default mixing * dielectric matrix)
  average eigenvalue GAMMA=   2.0658
  7.2421  3.8627  2.5236  2.1712  2.1712  1.2113  1.2113  0.7544  0.9427  0.9427
  0.8780  0.8780

 Free energy of the ion-electron system (eV)
  ---------------------------------------------------
  alpha Z        PSCENC =         0.01723541
  Ewald energy   TEWEN  =       528.13919540
  -Hartree energ DENC   =     -1315.94506585
  -exchange      EXHF   =         0.00000000
  -V(xc)+E(xc)   XCENC  =        67.92411369
  PAW double counting   =      2477.77194696    -2487.82654612
  entropy T*S    EENTRO =        -0.00000000
  eigenvalues    EBANDS =      -212.53246795
  atomic energy  EATOM  =       914.71024870
  Solvation  Ediel_sol  =         0.00000000
  ---------------------------------------------------
  free energy    TOTEN  =       -27.74133976 eV

  energy without entropy =      -27.74133976  energy(sigma->0) =      -27.74133976


--------------------------------------------------------------------------------------------------------




--------------------------------------- Iteration      1(  18)  ---------------------------------------


    POTLOK:  cpu time   11.7527: real time   11.7697
    SETDIJ:  cpu time    0.0526: real time    0.0527
     EDDAV:  cpu time    9.4216: real time    9.4369
       DOS:  cpu time    0.0029: real time    0.0029
    CHARGE:  cpu time    1.7284: real time    1.7310
    MIXING:  cpu time    0.3438: real time    0.3444
    --------------------------------------------
      LOOP:  cpu time   23.3020: real time   23.3376

 eigenvalue-minimisations  :    40
 total energy-change (2. order) :-0.1072894E-02  (-0.9721754E-05)
 number of electron      15.9999999 magnetization 
 augmentation part        2.7616540 magnetization 

 Broyden mixing:
  rms(total) = 0.38770E-03    rms(broyden)= 0.38770E-03
  rms(prec ) = 0.47360E-03
  weight for this iteration     100.00

 eigenvalues of (default mixing * dielectric matrix)
  average eigenvalue GAMMA=   2.1283
  7.8881  4.7306  2.5940  2.5274  1.6335  1.6335  1.1531  1.1531  1.0270  0.8673
  0.8673  0.7548  0.8379

 Free energy of the ion-electron system (eV)
  ---------------------------------------------------
  alpha Z        PSCENC =         0.01723541
  Ewald energy   TEWEN  =       528.13919540
  -Hartree energ DENC   =     -1316.02448171
  -exchange      EXHF   =         0.00000000
  -V(xc)+E(xc)   XCENC  =        67.92459201
  PAW double counting   =      2478.75015329    -2488.80606177
  entropy T*S    EENTRO =        -0.00000000
  eigenvalues    EBANDS =      -212.45329398
  atomic energy  EATOM  =       914.71024870
  Solvation  Ediel_sol  =         0.00000000
  ---------------------------------------------------
  free energy    TOTEN  =       -27.74241265 eV

  energy without entropy =      -27.74241265  energy(sigma->0) =      -27.74241265


--------------------------------------------------------------------------------------------------------




--------------------------------------- Iteration      1(  19)  ---------------------------------------


    POTLOK:  cpu time   11.7670: real time   11.7840
    SETDIJ:  cpu time    0.0528: real time    0.0528
     EDDAV:  cpu time    6.5387: real time    6.5493
       DOS:  cpu time    0.0021: real time    0.0021
    CHARGE:  cpu time    1.7112: real time    1.7138
    MIXING:  cpu time    0.3517: real time    0.3522
    --------------------------------------------
      LOOP:  cpu time   20.4235: real time   20.4543

 eigenvalue-minimisations  :    24
 total energy-change (2. order) :-0.3904499E-03  (-0.1497078E-05)
 number of electron      15.9999999 magnetization 
 augmentation part        2.7618031 magnetization 

 Broyden mixing:
  rms(total) = 0.80052E-03    rms(broyden)= 0.80052E-03
  rms(prec ) = 0.81963E-03
  weight for this iteration     100.00

 eigenvalues of (default mixing * dielectric matrix)
  average eigenvalue GAMMA=   2.2971
  8.5486  5.3498  3.5703  2.4004  2.4004  2.0928  1.2381  1.2223  1.0163  0.9392
  0.9392  0.7524  0.8445  0.8445

 Free energy of the ion-electron system (eV)
  ---------------------------------------------------
  alpha Z        PSCENC =         0.01723541
  Ewald energy   TEWEN  =       528.13919540
  -Hartree energ DENC   =     -1316.01292621
  -exchange      EXHF   =         0.00000000
  -V(xc)+E(xc)   XCENC  =        67.92313579
  PAW double counting   =      2478.63372765    -2488.68919365
  entropy T*S    EENTRO =        -0.00000000
  eigenvalues    EBANDS =      -212.46422620
  atomic energy  EATOM  =       914.71024870
  Solvation  Ediel_sol  =         0.00000000
  ---------------------------------------------------
  free energy    TOTEN  =       -27.74280310 eV

  energy without entropy =      -27.74280310  energy(sigma->0) =      -27.74280310


--------------------------------------------------------------------------------------------------------




--------------------------------------- Iteration      1(  20)  ---------------------------------------


    POTLOK:  cpu time   11.7535: real time   11.7708
    SETDIJ:  cpu time    0.0523: real time    0.0524
     EDDAV:  cpu time    7.2319: real time    7.2436
       DOS:  cpu time    0.0044: real time    0.0044
    CHARGE:  cpu time    1.7347: real time    1.7373
    MIXING:  cpu time    0.3661: real time    0.3667
    --------------------------------------------
      LOOP:  cpu time   21.1430: real time   21.1752

 eigenvalue-minimisations  :    28
 total energy-change (2. order) :-0.3487209E-03  (-0.1087485E-05)
 number of electron      15.9999999 magnetization 
 augmentation part        2.7617218 magnetization 

 Broyden mixing:
  rms(total) = 0.22162E-03    rms(broyden)= 0.22162E-03
  rms(prec ) = 0.23013E-03
  weight for this iteration     100.00

 eigenvalues of (default mixing * dielectric matrix)
  average eigenvalue GAMMA=   2.2343
  8.7077  5.4681  3.5388  2.4510  2.4510  2.0817  1.3438  1.1173  1.1173  1.0133
  0.7515  0.8763  0.8763  0.8600  0.8600

 Free energy of the ion-electron system (eV)
  ---------------------------------------------------
  alpha Z        PSCENC =         0.01723541
  Ewald energy   TEWEN  =       528.13919540
  -Hartree energ DENC   =     -1316.03395075
  -exchange      EXHF   =         0.00000000
  -V(xc)+E(xc)   XCENC  =        67.92306241
  PAW double counting   =      2478.47486956    -2488.53021908
  entropy T*S    EENTRO =        -0.00000000
  eigenvalues    EBANDS =      -212.44359348
  atomic energy  EATOM  =       914.71024870
  Solvation  Ediel_sol  =         0.00000000
  ---------------------------------------------------
  free energy    TOTEN  =       -27.74315183 eV

  energy without entropy =      -27.74315183  energy(sigma->0) =      -27.74315183


--------------------------------------------------------------------------------------------------------




--------------------------------------- Iteration      1(  21)  ---------------------------------------


    POTLOK:  cpu time   11.7183: real time   11.7373
    SETDIJ:  cpu time    0.0498: real time    0.0499
     EDDAV:  cpu time    7.9456: real time    7.9587
       DOS:  cpu time    0.0040: real time    0.0040
    CHARGE:  cpu time    1.7819: real time    1.7844
    MIXING:  cpu time    0.4198: real time    0.4205
    --------------------------------------------
      LOOP:  cpu time   21.9195: real time   21.9548

 eigenvalue-minimisations  :    32
 total energy-change (2. order) :-0.3651129E-04  (-0.3364856E-07)
 number of electron      15.9999999 magnetization 
 augmentation part        2.7617087 magnetization 

 Broyden mixing:
  rms(total) = 0.15394E-03    rms(broyden)= 0.15394E-03
  rms(prec ) = 0.16119E-03
  weight for this iteration     100.00

 eigenvalues of (default mixing * dielectric matrix)
  average eigenvalue GAMMA=   2.2868
  8.8854  5.7288  3.0785  3.0785  2.5510  2.5510  2.0048  1.2564  1.2564  1.0303
  0.7518  0.9096  0.9096  0.8656  0.8658  0.8658

 Free energy of the ion-electron system (eV)
  ---------------------------------------------------
  alpha Z        PSCENC =         0.01723541
  Ewald energy   TEWEN  =       528.13919540
  -Hartree energ DENC   =     -1316.03498628
  -exchange      EXHF   =         0.00000000
  -V(xc)+E(xc)   XCENC  =        67.92298251
  PAW double counting   =      2478.45592738    -2488.51128886
  entropy T*S    EENTRO =        -0.00000000
  eigenvalues    EBANDS =      -212.44250259
  atomic energy  EATOM  =       914.71024870
  Solvation  Ediel_sol  =         0.00000000
  ---------------------------------------------------
  free energy    TOTEN  =       -27.74318834 eV

  energy without entropy =      -27.74318834  energy(sigma->0) =      -27.74318834


--------------------------------------------------------------------------------------------------------




--------------------------------------- Iteration      1(  22)  ---------------------------------------


    POTLOK:  cpu time   11.7140: real time   11.7309
    SETDIJ:  cpu time    0.0537: real time    0.0537
     EDDAV:  cpu time    6.5642: real time    6.5763
       DOS:  cpu time    0.0020: real time    0.0020
    CHARGE:  cpu time    1.7095: real time    1.7121
    MIXING:  cpu time    0.4209: real time    0.4216
    --------------------------------------------
      LOOP:  cpu time   20.4643: real time   20.4965

 eigenvalue-minimisations  :    24
 total energy-change (2. order) :-0.6226948E-04  (-0.2326208E-07)
 number of electron      15.9999999 magnetization 
 augmentation part        2.7617223 magnetization 

 Broyden mixing:
  rms(total) = 0.96204E-04    rms(broyden)= 0.96204E-04
  rms(prec ) = 0.99003E-04
  weight for this iteration     100.00

 eigenvalues of (default mixing * dielectric matrix)
  average eigenvalue GAMMA=   2.3417
  9.2623  6.3431  4.4398  2.9725  2.4659  2.2040  2.2040  1.2976  1.2119  1.2119
  1.0215  0.7519  0.8918  0.8918  0.8941  0.8722  0.8722

 Free energy of the ion-electron system (eV)
  ---------------------------------------------------
  alpha Z        PSCENC =         0.01723541
  Ewald energy   TEWEN  =       528.13919540
  -Hartree energ DENC   =     -1316.03457094
  -exchange      EXHF   =         0.00000000
  -V(xc)+E(xc)   XCENC  =        67.92275749
  PAW double counting   =      2478.43967154    -2488.49495815
  entropy T*S    EENTRO =        -0.00000000
  eigenvalues    EBANDS =      -212.44283005
  atomic energy  EATOM  =       914.71024870
  Solvation  Ediel_sol  =         0.00000000
  ---------------------------------------------------
  free energy    TOTEN  =       -27.74325061 eV

  energy without entropy =      -27.74325061  energy(sigma->0) =      -27.74325061


--------------------------------------------------------------------------------------------------------




--------------------------------------- Iteration      1(  23)  ---------------------------------------


    POTLOK:  cpu time   11.6633: real time   11.6802
    SETDIJ:  cpu time    0.0539: real time    0.0539
     EDDAV:  cpu time    5.0949: real time    5.1031
       DOS:  cpu time    0.0008: real time    0.0008
    CHARGE:  cpu time    1.6973: real time    1.6998
    MIXING:  cpu time    0.5234: real time    0.5242
    --------------------------------------------
      LOOP:  cpu time   19.0336: real time   19.0621

 eigenvalue-minimisations  :    16
 total energy-change (2. order) :-0.1774836E-04  (-0.9414196E-08)
 number of electron      15.9999999 magnetization 
 augmentation part        2.7617131 magnetization 

 Broyden mixing:
  rms(total) = 0.73290E-04    rms(broyden)= 0.73290E-04
  rms(prec ) = 0.74542E-04
  weight for this iteration     100.00

 eigenvalues of (default mixing * dielectric matrix)
  average eigenvalue GAMMA=   2.2706
  9.3027  6.3974  4.4490  2.9859  2.4114  2.2722  2.2722  1.3132  1.2188  1.2188
  0.9908  0.9908  0.7520  0.8424  0.8606  0.8606  0.8656  0.8656

 Free energy of the ion-electron system (eV)
  ---------------------------------------------------
  alpha Z        PSCENC =         0.01723541
  Ewald energy   TEWEN  =       528.13919540
  -Hartree energ DENC   =     -1316.03744733
  -exchange      EXHF   =         0.00000000
  -V(xc)+E(xc)   XCENC  =        67.92281175
  PAW double counting   =      2478.49036147    -2488.54563842
  entropy T*S    EENTRO =        -0.00000000
  eigenvalues    EBANDS =      -212.44003534
  atomic energy  EATOM  =       914.71024870
  Solvation  Ediel_sol  =         0.00000000
  ---------------------------------------------------
  free energy    TOTEN  =       -27.74326835 eV

  energy without entropy =      -27.74326835  energy(sigma->0) =      -27.74326835


--------------------------------------------------------------------------------------------------------




--------------------------------------- Iteration      1(  24)  ---------------------------------------


    POTLOK:  cpu time   11.6830: real time   11.7000
    SETDIJ:  cpu time    0.0527: real time    0.0527
     EDDAV:  cpu time    6.5149: real time    6.5256
       DOS:  cpu time    0.0048: real time    0.0048
    CHARGE:  cpu time    1.7215: real time    1.7242
    MIXING:  cpu time    0.4551: real time    0.4558
    --------------------------------------------
      LOOP:  cpu time   20.4320: real time   20.4632

 eigenvalue-minimisations  :    24
 total energy-change (2. order) :-0.5433324E-05  (-0.2033440E-08)
 number of electron      15.9999999 magnetization 
 augmentation part        2.7617132 magnetization 

 Broyden mixing:
  rms(total) = 0.44966E-04    rms(broyden)= 0.44966E-04
  rms(prec ) = 0.46237E-04
  weight for this iteration     100.00

 eigenvalues of (default mixing * dielectric matrix)
  average eigenvalue GAMMA=   2.3774
  9.4380  6.7943  4.9154  3.5650  2.6106  2.6106  2.1695  2.1695  1.3095  1.2504
  1.2504  0.7520  0.8967  0.8967  1.0095  0.8725  0.8725  0.8940  0.8940

 Free energy of the ion-electron system (eV)
  ---------------------------------------------------
  alpha Z        PSCENC =         0.01723541
  Ewald energy   TEWEN  =       528.13919540
  -Hartree energ DENC   =     -1316.03782868
  -exchange      EXHF   =         0.00000000
  -V(xc)+E(xc)   XCENC  =        67.92282388
  PAW double counting   =      2478.49734041    -2488.55261575
  entropy T*S    EENTRO =        -0.00000000
  eigenvalues    EBANDS =      -212.43967316
  atomic energy  EATOM  =       914.71024870
  Solvation  Ediel_sol  =         0.00000000
  ---------------------------------------------------
  free energy    TOTEN  =       -27.74327379 eV

  energy without entropy =      -27.74327379  energy(sigma->0) =      -27.74327379


--------------------------------------------------------------------------------------------------------




--------------------------------------- Iteration      1(  25)  ---------------------------------------


    POTLOK:  cpu time   11.6731: real time   11.6902
    SETDIJ:  cpu time    0.0952: real time    0.0953
     EDDAV:  cpu time    5.1007: real time    5.1089
       DOS:  cpu time    0.0011: real time    0.0011
    CHARGE:  cpu time    1.7029: real time    1.7056
    MIXING:  cpu time    0.4976: real time    0.4984
    --------------------------------------------
      LOOP:  cpu time   19.0707: real time   19.0994

 eigenvalue-minimisations  :    16
 total energy-change (2. order) :-0.9825347E-05  (-0.3563136E-08)
 number of electron      15.9999999 magnetization 
 augmentation part        2.7617078 magnetization 

 Broyden mixing:
  rms(total) = 0.32509E-04    rms(broyden)= 0.32509E-04
  rms(prec ) = 0.32922E-04
  weight for this iteration     100.00

 eigenvalues of (default mixing * dielectric matrix)
  average eigenvalue GAMMA=   2.3549
  9.4906  7.0493  5.1505  3.8477  2.6534  2.4803  2.1889  2.1889  1.3856  1.2923
  1.2923  1.0457  0.9033  0.9033  0.7520  0.9453  0.9453  0.8623  0.8623  0.8589

 Free energy of the ion-electron system (eV)
  ---------------------------------------------------
  alpha Z        PSCENC =         0.01723541
  Ewald energy   TEWEN  =       528.13919540
  -Hartree energ DENC   =     -1316.03893741
  -exchange      EXHF   =         0.00000000
  -V(xc)+E(xc)   XCENC  =        67.92287105
  PAW double counting   =      2478.49811083    -2488.55344638
  entropy T*S    EENTRO =        -0.00000000
  eigenvalues    EBANDS =      -212.43856121
  atomic energy  EATOM  =       914.71024870
  Solvation  Ediel_sol  =         0.00000000
  ---------------------------------------------------
  free energy    TOTEN  =       -27.74328361 eV

  energy without entropy =      -27.74328361  energy(sigma->0) =      -27.74328361


--------------------------------------------------------------------------------------------------------




--------------------------------------- Iteration      1(  26)  ---------------------------------------


    POTLOK:  cpu time   11.6566: real time   11.6749
    SETDIJ:  cpu time    0.0532: real time    0.0532
     EDDAV:  cpu time    5.1756: real time    5.1839
       DOS:  cpu time    0.0009: real time    0.0009
    CHARGE:  cpu time    1.7140: real time    1.7166
    MIXING:  cpu time    0.4965: real time    0.4973
    --------------------------------------------
      LOOP:  cpu time   19.0968: real time   19.1269

 eigenvalue-minimisations  :    16
 total energy-change (2. order) :-0.2264626E-05  (-0.1325393E-08)
 number of electron      15.9999999 magnetization 
 augmentation part        2.7617116 magnetization 

 Broyden mixing:
  rms(total) = 0.33559E-04    rms(broyden)= 0.33559E-04
  rms(prec ) = 0.33698E-04
  weight for this iteration     100.00

 eigenvalues of (default mixing * dielectric matrix)
  average eigenvalue GAMMA=   2.4041
  9.5960  7.3100  5.4618  4.2084  2.7976  2.7976  2.3552  2.1089  1.6873  1.6873
  1.2838  1.2074  1.0622  0.9050  0.9050  0.9717  0.8757  0.8757  0.9039  0.7517
  0.7337

 Free energy of the ion-electron system (eV)
  ---------------------------------------------------
  alpha Z        PSCENC =         0.01723541
  Ewald energy   TEWEN  =       528.13919540
  -Hartree energ DENC   =     -1316.03869988
  -exchange      EXHF   =         0.00000000
  -V(xc)+E(xc)   XCENC  =        67.92285363
  PAW double counting   =      2478.50589917    -2488.56122444
  entropy T*S    EENTRO =        -0.00000000
  eigenvalues    EBANDS =      -212.43879387
  atomic energy  EATOM  =       914.71024870
  Solvation  Ediel_sol  =         0.00000000
  ---------------------------------------------------
  free energy    TOTEN  =       -27.74328588 eV

  energy without entropy =      -27.74328588  energy(sigma->0) =      -27.74328588


--------------------------------------------------------------------------------------------------------




--------------------------------------- Iteration      1(  27)  ---------------------------------------


    POTLOK:  cpu time   11.6846: real time   11.7019
    SETDIJ:  cpu time    0.0517: real time    0.0517
     EDDAV:  cpu time    5.0898: real time    5.0982
       DOS:  cpu time    0.0091: real time    0.0091
    CHARGE:  cpu time    1.7209: real time    1.7236
    MIXING:  cpu time    0.5111: real time    0.5119
    --------------------------------------------
      LOOP:  cpu time   19.0672: real time   19.0964

 eigenvalue-minimisations  :    16
 total energy-change (2. order) :-0.1488791E-05  (-0.1012458E-08)
 number of electron      15.9999999 magnetization 
 augmentation part        2.7617139 magnetization 

 Broyden mixing:
  rms(total) = 0.12117E-04    rms(broyden)= 0.12117E-04
  rms(prec ) = 0.12232E-04
  weight for this iteration     100.00

 eigenvalues of (default mixing * dielectric matrix)
  average eigenvalue GAMMA=   2.3683
  9.6304  7.4349  5.6199  4.2858  3.2116  2.4908  2.1525  2.1105  2.1105  1.6517
  1.2765  1.2765  1.0271  0.9893  0.9893  0.9032  0.9032  0.8538  0.8538  0.8168
  0.7534  0.7599

 Free energy of the ion-electron system (eV)
  ---------------------------------------------------
  alpha Z        PSCENC =         0.01723541
  Ewald energy   TEWEN  =       528.13919540
  -Hartree energ DENC   =     -1316.03831696
  -exchange      EXHF   =         0.00000000
  -V(xc)+E(xc)   XCENC  =        67.92283310
  PAW double counting   =      2478.48886118    -2488.54419710
  entropy T*S    EENTRO =        -0.00000000
  eigenvalues    EBANDS =      -212.43914710
  atomic energy  EATOM  =       914.71024870
  Solvation  Ediel_sol  =         0.00000000
  ---------------------------------------------------
  free energy    TOTEN  =       -27.74328737 eV

  energy without entropy =      -27.74328737  energy(sigma->0) =      -27.74328737


--------------------------------------------------------------------------------------------------------




--------------------------------------- Iteration      1(  28)  ---------------------------------------


    POTLOK:  cpu time   11.6622: real time   11.6795
    SETDIJ:  cpu time    0.0960: real time    0.0960
     EDDAV:  cpu time    6.5352: real time    6.5457
       DOS:  cpu time    0.0027: real time    0.0027
    CHARGE:  cpu time    1.7040: real time    1.7066
    MIXING:  cpu time    0.5406: real time    0.5415
    --------------------------------------------
      LOOP:  cpu time   20.5406: real time   20.5719

 eigenvalue-minimisations  :    24
 total energy-change (2. order) :-0.3941718E-06  (-0.6765255E-09)
 number of electron      15.9999999 magnetization 
 augmentation part        2.7617142 magnetization 

 Broyden mixing:
  rms(total) = 0.89095E-05    rms(broyden)= 0.89095E-05
  rms(prec ) = 0.90033E-05
  weight for this iteration     100.00

 eigenvalues of (default mixing * dielectric matrix)
  average eigenvalue GAMMA=   2.3735
  9.6567  7.4920  5.7939  4.1906  3.3330  2.6667  2.6667  2.1725  2.1725  1.6029
  1.6029  1.2960  1.1946  0.9171  0.9171  0.9945  0.9945  0.9230  0.8703  0.8703
  0.7524  0.7555  0.7555

 Free energy of the ion-electron system (eV)
  ---------------------------------------------------
  alpha Z        PSCENC =         0.01723541
  Ewald energy   TEWEN  =       528.13919540
  -Hartree energ DENC   =     -1316.03833839
  -exchange      EXHF   =         0.00000000
  -V(xc)+E(xc)   XCENC  =        67.92283195
  PAW double counting   =      2478.48731171    -2488.54264118
  entropy T*S    EENTRO =        -0.00000000
  eigenvalues    EBANDS =      -212.43913136
  atomic energy  EATOM  =       914.71024870
  Solvation  Ediel_sol  =         0.00000000
  ---------------------------------------------------
  free energy    TOTEN  =       -27.74328776 eV

  energy without entropy =      -27.74328776  energy(sigma->0) =      -27.74328776


--------------------------------------------------------------------------------------------------------




--------------------------------------- Iteration      1(  29)  ---------------------------------------


    POTLOK:  cpu time   11.6464: real time   11.6637
    SETDIJ:  cpu time    0.0530: real time    0.0530
     EDDAV:  cpu time    5.0998: real time    5.1081
       DOS:  cpu time    0.0009: real time    0.0009
    CHARGE:  cpu time    1.7994: real time    1.8021
    MIXING:  cpu time    0.5640: real time    0.5650
    --------------------------------------------
      LOOP:  cpu time   19.1635: real time   19.1928

 eigenvalue-minimisations  :    16
 total energy-change (2. order) :-0.3083921E-06  (-0.6164509E-09)
 number of electron      15.9999999 magnetization 
 augmentation part        2.7617134 magnetization 

 Broyden mixing:
  rms(total) = 0.42721E-05    rms(broyden)= 0.42721E-05
  rms(prec ) = 0.43407E-05
  weight for this iteration     100.00

 eigenvalues of (default mixing * dielectric matrix)
  average eigenvalue GAMMA=   2.4093
  9.6755  7.8090  6.0579  4.7410  3.6592  3.0076  2.4660  2.4660  2.0087  1.7730
  1.7730  1.2874  1.1932  1.1932  0.9057  0.9057  1.0054  0.9361  0.9361  0.8649
  0.8649  0.8071  0.7512  0.7354

 Free energy of the ion-electron system (eV)
  ---------------------------------------------------
  alpha Z        PSCENC =         0.01723541
  Ewald energy   TEWEN  =       528.13919540
  -Hartree energ DENC   =     -1316.03841688
  -exchange      EXHF   =         0.00000000
  -V(xc)+E(xc)   XCENC  =        67.92283312
  PAW double counting   =      2478.49063539    -2488.54595911
  entropy T*S    EENTRO =        -0.00000000
  eigenvalues    EBANDS =      -212.43906010
  atomic energy  EATOM  =       914.71024870
  Solvation  Ediel_sol  =         0.00000000
  ---------------------------------------------------
  free energy    TOTEN  =       -27.74328807 eV

  energy without entropy =      -27.74328807  energy(sigma->0) =      -27.74328807


--------------------------------------------------------------------------------------------------------




--------------------------------------- Iteration      1(  30)  ---------------------------------------


    POTLOK:  cpu time   11.6548: real time   11.6732
    SETDIJ:  cpu time    0.0576: real time    0.0576
     EDDAV:  cpu time    5.0753: real time    5.0837
       DOS:  cpu time    0.0040: real time    0.0040
    CHARGE:  cpu time    1.7087: real time    1.7113
    MIXING:  cpu time    0.5911: real time    0.5921
    --------------------------------------------
      LOOP:  cpu time   19.0914: real time   19.1219

 eigenvalue-minimisations  :    16
 total energy-change (2. order) :-0.2692773E-06  (-0.5526619E-09)
 number of electron      15.9999999 magnetization 
 augmentation part        2.7617125 magnetization 

 Broyden mixing:
  rms(total) = 0.47104E-05    rms(broyden)= 0.47104E-05
  rms(prec ) = 0.47268E-05
  weight for this iteration     100.00

 eigenvalues of (default mixing * dielectric matrix)
  average eigenvalue GAMMA=   2.3782
  9.6944  7.9763  6.2360  4.8615  3.8404  2.7215  2.7215  2.4152  1.7338  1.7338
  1.6953  1.5622  1.2332  1.2332  1.0232  1.0232  1.0105  0.9254  0.9254  0.9050
  0.8690  0.8690  0.7521  0.7465  0.7465

 Free energy of the ion-electron system (eV)
  ---------------------------------------------------
  alpha Z        PSCENC =         0.01723541
  Ewald energy   TEWEN  =       528.13919540
  -Hartree energ DENC   =     -1316.03844025
  -exchange      EXHF   =         0.00000000
  -V(xc)+E(xc)   XCENC  =        67.92283443
  PAW double counting   =      2478.49218590    -2488.54750665
  entropy T*S    EENTRO =        -0.00000000
  eigenvalues    EBANDS =      -212.43904129
  atomic energy  EATOM  =       914.71024870
  Solvation  Ediel_sol  =         0.00000000
  ---------------------------------------------------
  free energy    TOTEN  =       -27.74328834 eV

  energy without entropy =      -27.74328834  energy(sigma->0) =      -27.74328834


--------------------------------------------------------------------------------------------------------




--------------------------------------- Iteration      1(  31)  ---------------------------------------


    POTLOK:  cpu time   11.6706: real time   11.6880
    SETDIJ:  cpu time    0.0515: real time    0.0516
     EDDAV:  cpu time    6.5884: real time    6.5993
       DOS:  cpu time    0.0012: real time    0.0012
    --------------------------------------------
      LOOP:  cpu time   18.3118: real time   18.3401

 eigenvalue-minimisations  :    24
 total energy-change (2. order) :-0.4088110E-07  (-0.4912533E-09)
 number of electron      15.9999999 magnetization 
 augmentation part        2.7617125 magnetization 

 Free energy of the ion-electron system (eV)
  ---------------------------------------------------
  alpha Z        PSCENC =         0.01723541
  Ewald energy   TEWEN  =       528.13919540
  -Hartree energ DENC   =     -1316.03842555
  -exchange      EXHF   =         0.00000000
  -V(xc)+E(xc)   XCENC  =        67.92283399
  PAW double counting   =      2478.49174063    -2488.54706290
  entropy T*S    EENTRO =        -0.00000000
  eigenvalues    EBANDS =      -212.43905406
  atomic energy  EATOM  =       914.71024870
  Solvation  Ediel_sol  =         0.00000000
  ---------------------------------------------------
  free energy    TOTEN  =       -27.74328838 eV

  energy without entropy =      -27.74328838  energy(sigma->0) =      -27.74328838


--------------------------------------------------------------------------------------------------------




 average (electrostatic) potential at core
  the test charge radii are     0.6256  0.8742
  (the norm of the test charge is              1.0000)
       1 -40.9885       2 -40.9859       3 -40.9869       4 -40.9854       5 -90.2206
       6 -90.2195
 
 
 
 E-fermi :  -6.5506     XC(G=0):  -0.0320     alpha+bet : -0.0064


 k-point     1 :       0.0000    0.0000    0.0000
  band No.  band energies     occupation 
      1     -25.0564      2.00000
      2     -24.9969      2.00000
      3     -12.7232      2.00000
      4     -12.6605      2.00000
      5      -9.0948      2.00000
      6      -8.1875      2.00000
      7      -6.8417      2.00000
      8      -6.6585      2.00000
      9      -0.9143      0.00000
     10      -0.4871      0.00000
     11       0.0001      0.00000
     12       0.1015      0.00000


--------------------------------------------------------------------------------------------------------


 soft charge-density along one line, spin component            1
         0         1         2         3         4         5         6         7         8         9
 total charge-density along one line
 
 pseudopotential strength for first ion, spin component:            1
 -2.330  -3.696  -0.014  -0.020   0.000
 -3.696  -5.697  -0.028  -0.040   0.001
 -0.014  -0.028  -0.117   0.015  -0.000
 -0.020  -0.040   0.015  -0.107  -0.001
  0.000   0.001  -0.000  -0.001  -0.130
 total augmentation occupancy for first ion, spin component:            1
  2.832  -0.512   0.634   0.832  -0.019
 -0.512   0.213  -0.086  -0.090   0.002
  0.634  -0.086   0.196   0.171  -0.004
  0.832  -0.090   0.171   0.294  -0.004
 -0.019   0.002  -0.004  -0.004   0.104


------------------------ aborting loop because EDIFF is reached ----------------------------------------



 DIPCOR: dipole corrections for dipol
 direction  1 min pos   463, direction  2 min pos   437, direction  3 min pos   396,
 dipolmoment          -0.015351      0.000741      0.018951 electrons x Angstroem
 Tr[quadrupol]         4.361511

 energy correction for charged system         0.000000 eV
 dipol+quadrupol energy correction            0.000000 eV
 added-field ion interaction          0.000000 eV  (added to PSCEN)

 
  *************** adding dipol energy to TOTEN NOW **************** 
    CHARGE:  cpu time    1.7062: real time    1.7087
    FORLOC:  cpu time    0.5323: real time    0.5329
    FORNL :  cpu time    0.3543: real time    0.3549
    STRESS:  cpu time    3.5926: real time    3.5983
    FORHAR:  cpu time    3.3387: real time    3.3437
    MIXING:  cpu time    0.6070: real time    0.6081
    OFIELD:  cpu time    0.0000: real time    0.0000

  FORCE on cell =-STRESS in cart. coord.  units (eV):
  Direction    XX          YY          ZZ          XY          YZ          ZX
  --------------------------------------------------------------------------------------
  Alpha Z     0.01724     0.01724     0.01724
  Ewald     -49.88058   380.04603   197.97319     2.53478     1.67128    -3.96889
  Hartree   328.32902   616.23717   371.47221     0.61971     0.04927    -0.69207
  E(xc)     -72.53558   -71.89784   -71.57580     0.00954     0.00771    -0.01541
  Local    -595.67139 -1268.28594  -807.61919    -2.40679    -1.02317     3.39353
  n-local    32.47236    24.92047    22.75227    -0.12313    -0.04719     0.15739
  augment    95.95666    87.20162    80.94502    -0.14559    -0.12927     0.24085
  Kinetic   261.31291   235.13041   210.73775    -0.44844    -0.46836     0.80941
  Fock        0.00000     0.00000     0.00000     0.00000     0.00000     0.00000
  -------------------------------------------------------------------------------------
  Total       0.00063     3.36916     4.70268     0.04008     0.06026    -0.07519
  in kB       0.00002     0.12590     0.17573     0.00150     0.00225    -0.00281
  external pressure =        0.10 kB  Pullay stress =        0.00 kB


 VOLUME and BASIS-vectors are now :
 -----------------------------------------------------------------------------
  energy-cutoff  :     1000.00
  volume of cell :    42875.00
      direct lattice vectors                 reciprocal lattice vectors
    35.000000000  0.000000000  0.000000000     0.028571429  0.000000000  0.000000000
     0.000000000 35.000000000  0.000000000     0.000000000  0.028571429  0.000000000
     0.000000000  0.000000000 35.000000000     0.000000000  0.000000000  0.028571429

  length of vectors
    35.000000000 35.000000000 35.000000000     0.028571429  0.028571429  0.028571429


 FORCES acting on ions
    electron-ion (+dipol)            ewald-force                    non-local-force                 convergence-correction
 -----------------------------------------------------------------------------------------------
   -.169E+01 0.601E+02 0.743E+02   0.187E+01 -.656E+02 -.821E+02   -.144E+00 0.448E+01 0.631E+01   -.875E-08 0.373E-06 0.127E-06
   0.133E+01 0.609E+02 -.737E+02   -.147E+01 -.665E+02 0.815E+02   0.112E+00 0.456E+01 -.626E+01   0.155E-08 0.369E-06 -.114E-06
   -.274E+01 -.571E+02 0.764E+02   0.303E+01 0.623E+02 -.845E+02   -.233E+00 -.421E+01 0.649E+01   -.112E-07 -.368E-06 0.184E-06
   -.117E+01 -.637E+02 -.713E+02   0.129E+01 0.696E+02 0.789E+02   -.100E+00 -.481E+01 -.606E+01   -.240E-08 -.390E-06 -.185E-06
   0.249E+00 0.352E+02 -.415E+00   -.501E+00 0.351E+02 0.853E+00   0.246E+00 -.685E+02 -.434E+00   -.326E-07 0.697E-05 0.256E-07
   0.175E+01 -.353E+02 -.216E+01   -.422E+01 -.349E+02 0.543E+01   0.240E+01 0.684E+02 -.316E+01   -.200E-06 -.630E-05 0.109E-06
 -----------------------------------------------------------------------------------------------
   -.228E+01 0.982E-01 0.312E+01   0.888E-15 0.000E+00 -.888E-15   0.228E+01 -.983E-01 -.312E+01   -.253E-06 0.664E-06 0.146E-06
 
 
 POSITION                                       TOTAL-FORCE (eV/Angst)
 -----------------------------------------------------------------------------------
      0.01761      0.64046     34.23865         0.035140     -1.048717     -1.557657
     34.98662      0.63163      0.75455        -0.028780     -1.060879      1.547631
      0.02970      4.58138     34.21499         0.054391      0.972863     -1.600751
      0.01365      4.65327      0.72944         0.021888      1.132397      1.501032
      0.00000      1.22721      0.00000        -0.006267      1.796600      0.004583
      0.00000      4.02721      0.00000        -0.076372     -1.792263      0.105163
 -----------------------------------------------------------------------------------
    total drift:                               -0.000000     -0.000080     -0.000012


--------------------------------------------------------------------------------------------------------



  FREE ENERGIE OF THE ION-ELECTRON SYSTEM (eV)
  ---------------------------------------------------
  free  energy   TOTEN  =       -27.74328796 eV

  energy  without entropy=      -27.74328796  energy(sigma->0) =      -27.74328796
 


--------------------------------------------------------------------------------------------------------


    POTLOK:  cpu time   11.7355: real time   11.7528


--------------------------------------------------------------------------------------------------------


 writing wavefunctions
     LOOP+:  cpu time  987.7928: real time  991.5457
    4ORBIT:  cpu time    0.0000: real time    0.0000

 total amount of memory used by VASP MPI-rank0  1839751. kBytes
=======================================================================

   base      :      30000. kBytes
   nonl-proj :      86200. kBytes
   fftplans  :     660854. kBytes
   grid      :    1044223. kBytes
   one-center:          3. kBytes
   wavefun   :      18471. kBytes
 
  
  
 General timing and accounting informations for this job:
 ========================================================
  
                  Total CPU time used (sec):     1394.919
                            User time (sec):     1350.758
                          System time (sec):       44.162
                         Elapsed time (sec):     1406.192
  
                   Maximum memory used (kb):     2283284.
                   Average memory used (kb):           0.
  
                          Minor page faults:     24036165
                          Major page faults:          172
                 Voluntary context switches:        18446
