 vasp.6.1.2 22Jul20 (build Jan  5 2021 21:18:56) complex                         
 executed on             LinuxPGI date 2021.01.27  11:16:23
 running on   32 total cores
 distrk:  each k-point on   32 cores,    1 groups
 distr:  one band on NCORE=   8 cores,    4 groups


--------------------------------------------------------------------------------------------------------


 INCAR:
 POTCAR:    PAW_PBE H_s 15May2010                 
 POTCAR:    PAW_PBE O_s 07Sep2000                 
 POTCAR:    PAW_PBE H_s 15May2010                 
   VRHFIN =H: ultrasoft test                                                                        
   LEXCH  = PE                                                                                      
   EATOM  =    12.4884 eV,    0.9179 Ry                                                             
                                                                                                    
   TITEL  = PAW_PBE H_s 15May2010                                                                   
   LULTRA =        F    use ultrasoft PP ?                                                          
   IUNSCR =        0    unscreen: 0-lin 1-nonlin 2-no                                               
   RPACOR =    0.000    partial core radius                                                         
   POMASS =    1.000; ZVAL   =    1.000    mass and valenz                                          
   RCORE  =    1.300    outmost cutoff radius                                                       
   RWIGS  =    0.700; RWIGS  =    0.370    wigner-seitz radius (au A)                               
   ENMAX  =  200.000; ENMIN  =  150.000 eV                                                          
   RCLOC  =    0.701    cutoff for local pot                                                        
   LCOR   =        T    correct aug charges                                                         
   LPAW   =        T    paw PP                                                                      
   EAUG   =  300.000                                                                                
   RMAX   =    1.330    core radius for proj-oper                                                   
   RAUG   =    1.200    factor for augmentation sphere                                              
   RDEP   =    1.337    radius for radial grids                                                     
   RDEPT  =    1.114    core radius for aug-charge                                                  
                                                                                                    
   Atomic configuration                                                                             
    2 entries                                                                                       
     n  l   j            E        occ.                                                              
     1  0  0.50        -6.4927   1.0000                                                             
     2  1  0.50        -3.4015   0.0000                                                             
   Description                                                                                      
     l       E           TYP  RCUT    TYP  RCUT                                                     
     0     -6.4927494     23  1.300                                                                 
     0      6.8029130     23  1.300                                                                 
     1     -4.0817478     23  1.300                                                                 
  local pseudopotential read in
  atomic valenz-charges read in
  non local Contribution for L=            0  read in
    real space projection operators read in
  non local Contribution for L=            0  read in
    real space projection operators read in
  non local Contribution for L=            1  read in
    real space projection operators read in
    PAW grid and wavefunctions read in
 
   number of l-projection  operators is LMAX  =            3
   number of lm-projection operators is LMMAX =            5
 
 POTCAR:    PAW_PBE O_s 07Sep2000                 
   VRHFIN =O: s2p4                                                                                  
   LEXCH  = PE                                                                                      
   EATOM  =   432.3788 eV,   31.7789 Ry                                                             
                                                                                                    
   TITEL  = PAW_PBE O_s 07Sep2000                                                                   
   LULTRA =        F    use ultrasoft PP ?                                                          
   IUNSCR =        0    unscreen: 0-lin 1-nonlin 2-no                                               
   RPACOR =    0.000    partial core radius                                                         
   POMASS =   16.000; ZVAL   =    6.000    mass and valenz                                          
   RCORE  =    1.850    outmost cutoff radius                                                       
   RWIGS  =    1.700; RWIGS  =    0.900    wigner-seitz radius (au A)                               
   ENMAX  =  282.853; ENMIN  =  212.140 eV                                                          
   RCLOC  =    0.804    cutoff for local pot                                                        
   LCOR   =        T    correct aug charges                                                         
   LPAW   =        T    paw PP                                                                      
   EAUG   =  412.352                                                                                
   RMAX   =    1.897    core radius for proj-oper                                                   
   RAUG   =    1.300    factor for augmentation sphere                                              
   RDEP   =    1.878    radius for radial grids                                                     
   RDEPT  =    1.572    core radius for aug-charge                                                  
                                                                                                    
   Atomic configuration                                                                             
    4 entries                                                                                       
     n  l   j            E        occ.                                                              
     1  0  0.50      -514.6923   2.0000                                                             
     2  0  0.50       -23.9615   2.0000                                                             
     2  1  0.50        -9.0305   4.0000                                                             
     3  2  1.50        -1.3606   0.0000                                                             
   Description                                                                                      
     l       E           TYP  RCUT    TYP  RCUT                                                     
     0    -23.9615315     23  1.500                                                                 
     0    -25.3221141     23  1.500                                                                 
     1     -9.0304908     23  1.850                                                                 
     1     -7.3935399     23  1.850                                                                 
  local pseudopotential read in
  atomic valenz-charges read in
  non local Contribution for L=            0  read in
    real space projection operators read in
  non local Contribution for L=            0  read in
    real space projection operators read in
  non local Contribution for L=            1  read in
    real space projection operators read in
  non local Contribution for L=            1  read in
    real space projection operators read in
    PAW grid and wavefunctions read in
 
   number of l-projection  operators is LMAX  =            4
   number of lm-projection operators is LMMAX =            8
 
  PAW_PBE H_s 15May2010                 :
 energy of atom  1       EATOM=  -12.4884
 kinetic energy error for atom=    0.0000 (will be added to EATOM!!)
  PAW_PBE O_s 07Sep2000                 :
 energy of atom  2       EATOM= -432.3788
 kinetic energy error for atom=    0.0004 (will be added to EATOM!!)
 
 
 POSCAR:  H  O
  positions in cartesian coordinates
  No initial velocities read in
 exchange correlation table for  LEXCH =        8
   RHO(1)=    0.500       N(1)  =     2000
   RHO(2)=  100.500       N(2)  =     4000
 


--------------------------------------------------------------------------------------------------------


 ion  position               nearest neighbor table
   1  0.001  0.018  0.978-   5 0.96
   2  1.000  0.018  0.022-   5 0.96
   3  0.001  0.174  0.978-   6 0.96
   4  0.000  0.176  0.021-   6 0.96
   5  0.000  0.035  0.000-   1 0.96   2 0.96
   6  0.000  0.158  0.000-   4 0.96   3 0.96
 
  LATTYP: Found a simple cubic cell.
 ALAT       =    35.0000000000
  
  Lattice vectors:
  
 A1 = (  35.0000000000,   0.0000000000,   0.0000000000)
 A2 = (   0.0000000000,  35.0000000000,   0.0000000000)
 A3 = (   0.0000000000,   0.0000000000,  35.0000000000)


Analysis of symmetry for initial positions (statically):
=====================================================================
 Subroutine PRICEL returns:
 Original cell was already a primitive cell.
 

 Routine SETGRP: Setting up the symmetry group for a 
 simple cubic supercell.


 Subroutine GETGRP returns: Found  1 space group operations
 (whereof  1 operations were pure point group operations)
 out of a pool of 48 trial point group operations.


The static configuration has the point symmetry C_1 .


Analysis of symmetry for dynamics (positions and initial velocities):
=====================================================================
 Subroutine PRICEL returns:
 Original cell was already a primitive cell.
 

 Routine SETGRP: Setting up the symmetry group for a 
 simple cubic supercell.


 Subroutine GETGRP returns: Found  1 space group operations
 (whereof  1 operations were pure point group operations)
 out of a pool of 48 trial point group operations.


The dynamic configuration has the point symmetry C_1 .


 Subroutine INISYM returns: Found  1 space group operations
 (whereof  1 operations are pure point group operations),
 and found     1 'primitive' translations


----------------------------------------------------------------------------------------

                                     Primitive cell                                     

  volume of cell :   42875.0000

  direct lattice vectors                    reciprocal lattice vectors
    35.000000000  0.000000000  0.000000000     0.028571429  0.000000000  0.000000000
     0.000000000 35.000000000  0.000000000     0.000000000  0.028571429  0.000000000
     0.000000000  0.000000000 35.000000000     0.000000000  0.000000000  0.028571429

  length of vectors
    35.000000000 35.000000000 35.000000000     0.028571429  0.028571429  0.028571429

  position of ions in fractional coordinates (direct lattice)
     0.000503079  0.018298976  0.978247097
     0.999617776  0.018046666  0.021558586
     0.000848682  0.173753642  0.977571084
     0.000390051  0.175807815  0.020841195
     0.000000000  0.035063029  0.000000000
     0.000000000  0.157920171  0.000000000

  ion indices of the primitive-cell ions
   primitive index   ion index
                 1           1
                 2           2
                 3           3
                 4           4
                 5           5
                 6           6

----------------------------------------------------------------------------------------

 
 
 KPOINTS: automatic mesh                          

Automatic generation of k-mesh.
Space group operators:
 irot       det(A)        alpha          n_x          n_y          n_z        tau_x        tau_y        tau_z
    1     1.000000     0.000000     1.000000     0.000000     0.000000     0.000000     0.000000     0.000000
 
 Subroutine IBZKPT returns following result:
 ===========================================
 
 Found      1 irreducible k-points:
 
 Following reciprocal coordinates:
            Coordinates               Weight
  0.000000  0.000000  0.000000      1.000000
 
 Following cartesian coordinates:
            Coordinates               Weight
  0.000000  0.000000  0.000000      1.000000
 


--------------------------------------------------------------------------------------------------------




 Dimension of arrays:
   k-points           NKPTS =      1   k-points in BZ     NKDIM =      1   number of bands    NBANDS=     12
   number of dos      NEDOS =    301   number of ions     NIONS =      6
   non local maximal  LDIM  =      4   non local SUM 2l+1 LMDIM =      8
   total plane-waves  NPLWV = ******
   max r-space proj   IRMAX =      1   max aug-charges    IRDMAX=  29269
   dimension x,y,z NGX =   378 NGY =  378 NGZ =  378
   dimension x,y,z NGXF=   756 NGYF=  756 NGZF=  756
   support grid    NGXF=   756 NGYF=  756 NGZF=  756
   ions per type =               4   2
   NGX,Y,Z   is equivalent  to a cutoff of  17.95, 17.95, 17.95 a.u.
   NGXF,Y,Z  is equivalent  to a cutoff of  35.91, 35.91, 35.91 a.u.

 SYSTEM =  C                                       
 POSCAR =   H  O                                   

 Startparameter for this run:
   NWRITE =      2    write-flag & timer
   PREC   = acc       normal or accurate (medium, high low for compatibility)
   ISTART =      0    job   : 0-new  1-cont  2-samecut
   ICHARG =      2    charge: 1-file 2-atom 10-const
   ISPIN  =      1    spin polarized calculation?
   LNONCOLLINEAR =      F non collinear calculations
   LSORBIT =      F    spin-orbit coupling
   INIWAV =      1    electr: 0-lowe 1-rand  2-diag
   LASPH  =      T    aspherical Exc in radial PAW
   METAGGA=      F    non-selfconsistent MetaGGA calc.

 Electronic Relaxation 1
   ENCUT  = 1000.0 eV  73.50 Ry    8.57 a.u.  90.25 90.25 90.25*2*pi/ulx,y,z
   ENINI  = 1000.0     initial cutoff
   ENAUG  =  412.4 eV  augmentation charge cutoff
   NELM   =     60;   NELMIN=  2; NELMDL= -5     # of ELM steps 
   EDIFF  = 0.1E-06   stopping-criterion for ELM
   LREAL  =      F    real-space projection
   NLSPLINE    = F    spline interpolate recip. space projectors
   LCOMPAT=      F    compatible to vasp.4.4
   GGA_COMPAT  = T    GGA compatible to vasp.4.4-vasp.4.6
   LMAXPAW     = -100 max onsite density
   LMAXMIX     =    2 max onsite mixed and CHGCAR
   VOSKOWN=      0    Vosko Wilk Nusair interpolation
   ROPT   =    0.00000   0.00000
 Ionic relaxation
   EDIFFG = 0.1E-05   stopping-criterion for IOM
   NSW    =      0    number of steps for IOM
   NBLOCK =      1;   KBLOCK =      1    inner block; outer block 
   IBRION =     -1    ionic relax: 0-MD 1-quasi-New 2-CG
   NFREE  =      0    steps in history (QN), initial steepest desc. (CG)
   ISIF   =      2    stress and relaxation
   IWAVPR =     10    prediction:  0-non 1-charg 2-wave 3-comb
   ISYM   =      2    0-nonsym 1-usesym 2-fastsym
   LCORR  =      T    Harris-Foulkes like correction to forces

   POTIM  = 0.5000    time-step for ionic-motion
   TEIN   =    0.0    initial temperature
   TEBEG  =    0.0;   TEEND  =   0.0 temperature during run
   SMASS  =  -3.00    Nose mass-parameter (am)
   estimated Nose-frequenzy (Omega)   =  0.10E-29 period in steps = 0.13E+47 mass=  -0.280E-25a.u.
   SCALEE = 1.0000    scale energy and forces
   NPACO  =    256;   APACO  = 16.0  distance and # of slots for P.C.
   PSTRESS=    0.0 pullay stress

  Mass of Ions in am
   POMASS =   1.00 16.00
  Ionic Valenz
   ZVAL   =   1.00  6.00
  Atomic Wigner-Seitz radii
   RWIGS  =  -1.00 -1.00
  virtual crystal weights 
   VCA    =   1.00  1.00
   NELECT =      16.0000    total number of electrons
   NUPDOWN=      -1.0000    fix difference up-down

 DOS related values:
   EMIN   =  10.00;   EMAX   =-10.00  energy-range for DOS
   EFERMI =   0.00
   ISMEAR =     0;   SIGMA  =   0.01  broadening in eV -4-tet -1-fermi 0-gaus

 Electronic relaxation 2 (details)
   IALGO  =     38    algorithm
   LDIAG  =      T    sub-space diagonalisation (order eigenvalues)
   LSUBROT=      F    optimize rotation matrix (better conditioning)
   TURBO    =      0    0=normal 1=particle mesh
   IRESTART =      0    0=no restart 2=restart with 2 vectors
   NREBOOT  =      0    no. of reboots
   NMIN     =      0    reboot dimension
   EREF     =   0.00    reference energy to select bands
   IMIX   =      4    mixing-type and parameters
     AMIX     =   0.40;   BMIX     =  1.00
     AMIX_MAG =   1.60;   BMIX_MAG =  1.00
     AMIN     =   0.10
     WC   =   100.;   INIMIX=   1;  MIXPRE=   1;  MAXMIX= -45

 Intra band minimization:
   WEIMIN = 0.0000     energy-eigenvalue tresh-hold
   EBREAK =  0.21E-08  absolut break condition
   DEPER  =   0.30     relativ break condition  

   TIME   =   0.40     timestep for ELM

  volume/ion in A,a.u.               =    7145.83     48222.46
  Fermi-wavevector in a.u.,A,eV,Ry     =   0.117864  0.222730  0.189010  0.013892
  Thomas-Fermi vector in A             =   0.732055
 
 Write flags
   LWAVE        =      T    write WAVECAR
   LDOWNSAMPLE  =      F    k-point downsampling of WAVECAR
   LCHARG       =      T    write CHGCAR
   LVTOT        =      F    write LOCPOT, total local potential
   LVHAR        =      F    write LOCPOT, Hartree potential only
   LELF         =      F    write electronic localiz. function (ELF)
   LORBIT       =      0    0 simple, 1 ext, 2 COOP (PROOUT), +10 PAW based schemes


 Dipole corrections
   LMONO  =      F    monopole corrections only (constant potential shift)
   LDIPOL =      F    correct potential (dipole corrections)
   IDIPOL =      4    1-x, 2-y, 3-z, 4-all directions 
   EPSILON=  1.0000000 bulk dielectric constant

 Exchange correlation treatment:
   GGA     =    --    GGA type
   LEXCH   =     8    internal setting for exchange type
   VOSKOWN=      0    Vosko Wilk Nusair interpolation
   LHFCALC =     F    Hartree Fock is set to
   LHFONE  =     F    Hartree Fock one center treatment
   AEXX    =    0.0000 exact exchange contribution

 Linear response parameters
   LEPSILON=     F    determine dielectric tensor
   LRPA    =     F    only Hartree local field effects (RPA)
   LNABLA  =     F    use nabla operator in PAW spheres
   LVEL    =     F    velocity operator in full k-point grid
   LINTERFAST=   F  fast interpolation
   KINTER  =     0    interpolate to denser k-point grid
   CSHIFT  =0.1000    complex shift for real part using Kramers Kronig
   OMEGAMAX=  -1.0    maximum frequency
   DEG_THRESHOLD= 0.2000000E-02 threshold for treating states as degnerate
   RTIME   =   -0.100 relaxation time in fs
  (WPLASMAI=    0.000 imaginary part of plasma frequency in eV, 0.658/RTIME)
   DFIELD  = 0.0000000 0.0000000 0.0000000 field for delta impulse in time
 
 Orbital magnetization related:
   ORBITALMAG=     F  switch on orbital magnetization
   LCHIMAG   =     F  perturbation theory with respect to B field
   DQ        =  0.001000  dq finite difference perturbation B field
   LLRAUG    =     F  two centre corrections for induced B field



--------------------------------------------------------------------------------------------------------


 Static calculation
 charge density and potential will be updated during run
 non-spin polarized calculation
 Variant of blocked Davidson
 Davidson routine will perform the subspace rotation
 perform sub-space diagonalisation
    after iterative eigenvector-optimisation
 modified Broyden-mixing scheme, WC =      100.0
 initial mixing is a Kerker type mixing with AMIX =  0.4000 and BMIX =      1.0000
 Hartree-type preconditioning will be used
 using additional bands             4
 reciprocal scheme for non local part
 calculate Harris-corrections to forces 
   (improved forces if not selfconsistent)
 use gradient corrections 
 use of overlap-Matrix (Vanderbilt PP)
 Gauss-broadening in eV      SIGMA  =   0.01


--------------------------------------------------------------------------------------------------------


  energy-cutoff  :     1000.00
  volume of cell :    42875.00
      direct lattice vectors                 reciprocal lattice vectors
    35.000000000  0.000000000  0.000000000     0.028571429  0.000000000  0.000000000
     0.000000000 35.000000000  0.000000000     0.000000000  0.028571429  0.000000000
     0.000000000  0.000000000 35.000000000     0.000000000  0.000000000  0.028571429

  length of vectors
    35.000000000 35.000000000 35.000000000     0.028571429  0.028571429  0.028571429


 
 k-points in units of 2pi/SCALE and weight: automatic mesh                          
   0.00000000  0.00000000  0.00000000       1.000
 
 k-points in reciprocal lattice and weights: automatic mesh                          
   0.00000000  0.00000000  0.00000000       1.000
 
 position of ions in fractional coordinates (direct lattice) 
   0.00050308  0.01829898  0.97824710
   0.99961778  0.01804667  0.02155859
   0.00084868  0.17375364  0.97757108
   0.00039005  0.17580781  0.02084119
   0.00000000  0.03506303  0.00000000
   0.00000000  0.15792017  0.00000000
 
 position of ions in cartesian coordinates  (Angst):
   0.01760775  0.64046416 34.23864840
  34.98662216  0.63163330  0.75455051
   0.02970387  6.08137746 34.21498793
   0.01365177  6.15327352  0.72944182
   0.00000000  1.22720600  0.00000000
   0.00000000  5.52720600  0.00000000
 


--------------------------------------------------------------------------------------------------------


 k-point   1 :   0.0000 0.0000 0.0000  plane waves: 3078417

 maximum and minimum number of plane-waves per node :    384834   384776

 maximum number of plane-waves:   3078417
 maximum index in each direction: 
   IXMAX=   90   IYMAX=   90   IZMAX=   90
   IXMIN=  -90   IYMIN=  -90   IZMIN=  -90


 parallel 3D FFT for wavefunctions:
    minimum data exchange during FFTs selected (reduces bandwidth)
 parallel 3D FFT for charge:
    minimum data exchange during FFTs selected (reduces bandwidth)


 total amount of memory used by VASP MPI-rank0  1839751. kBytes
=======================================================================

   base      :      30000. kBytes
   nonl-proj :      86200. kBytes
   fftplans  :     660854. kBytes
   grid      :    1044223. kBytes
   one-center:          3. kBytes
   wavefun   :      18471. kBytes
 
     INWAV:  cpu time    0.0000: real time    0.0000
 Broyden mixing: mesh for mixing (old mesh)
   NGX =181   NGY =181   NGZ =181
  (NGX  =756   NGY  =756   NGZ  =756)
  gives a total of ****** points

 initial charge density was supplied:
 charge density of overlapping atoms calculated
 number of electron      16.0000000 magnetization 
 keeping initial charge density in first step


--------------------------------------------------------------------------------------------------------


 Maximum index for augmentation-charges          1122 (set IRDMAX)


--------------------------------------------------------------------------------------------------------


 First call to EWALD:  gamma=   0.051
 Maximum number of real-space cells 3x 3x 3
 Maximum number of reciprocal cells 3x 3x 3

    FEWALD:  cpu time    0.0008: real time    0.0008


--------------------------------------- Iteration      1(   1)  ---------------------------------------


    POTLOK:  cpu time   11.1930: real time   11.2073
    SETDIJ:  cpu time    0.0401: real time    0.0409
     EDDAV:  cpu time    9.4814: real time    9.5236
       DOS:  cpu time    0.0021: real time    0.0020
    --------------------------------------------
      LOOP:  cpu time   20.7165: real time   20.7740

 eigenvalue-minimisations  :    40
 total energy-change (2. order) : 0.1322538E+03  (-0.2710152E+03)
 number of electron      16.0000000 magnetization 
 augmentation part       16.0000000 magnetization 

 Free energy of the ion-electron system (eV)
  ---------------------------------------------------
  alpha Z        PSCENC =         0.01723541
  Ewald energy   TEWEN  =       430.77688883
  -Hartree energ DENC   =     -1140.94454298
  -exchange      EXHF   =         0.00000000
  -V(xc)+E(xc)   XCENC  =        64.23073194
  PAW double counting   =       700.82501663     -709.28092584
  entropy T*S    EENTRO =        -0.00000000
  eigenvalues    EBANDS =      -128.08090009
  atomic energy  EATOM  =       914.71024870
  Solvation  Ediel_sol  =         0.00000000
  ---------------------------------------------------
  free energy    TOTEN  =       132.25375259 eV

  energy without entropy =      132.25375259  energy(sigma->0) =      132.25375259


--------------------------------------------------------------------------------------------------------




--------------------------------------- Iteration      1(   2)  ---------------------------------------


     EDDAV:  cpu time    9.4409: real time    9.4540
       DOS:  cpu time    0.0001: real time    0.0001
    --------------------------------------------
      LOOP:  cpu time    9.4410: real time    9.4541

 eigenvalue-minimisations  :    40
 total energy-change (2. order) :-0.1078534E+03  (-0.1035945E+03)
 number of electron      16.0000000 magnetization 
 augmentation part       16.0000000 magnetization 

 Free energy of the ion-electron system (eV)
  ---------------------------------------------------
  alpha Z        PSCENC =         0.01723541
  Ewald energy   TEWEN  =       430.77688883
  -Hartree energ DENC   =     -1140.94454298
  -exchange      EXHF   =         0.00000000
  -V(xc)+E(xc)   XCENC  =        64.23073194
  PAW double counting   =       700.82501663     -709.28092584
  entropy T*S    EENTRO =        -0.00000000
  eigenvalues    EBANDS =      -235.93432075
  atomic energy  EATOM  =       914.71024870
  Solvation  Ediel_sol  =         0.00000000
  ---------------------------------------------------
  free energy    TOTEN  =        24.40033194 eV

  energy without entropy =       24.40033194  energy(sigma->0) =       24.40033194


--------------------------------------------------------------------------------------------------------




--------------------------------------- Iteration      1(   3)  ---------------------------------------


     EDDAV:  cpu time    7.3218: real time    7.3371
       DOS:  cpu time    0.0015: real time    0.0015
    --------------------------------------------
      LOOP:  cpu time    7.3233: real time    7.3387

 eigenvalue-minimisations  :    28
 total energy-change (2. order) :-0.5042002E+02  (-0.5032710E+02)
 number of electron      16.0000000 magnetization 
 augmentation part       16.0000000 magnetization 

 Free energy of the ion-electron system (eV)
  ---------------------------------------------------
  alpha Z        PSCENC =         0.01723541
  Ewald energy   TEWEN  =       430.77688883
  -Hartree energ DENC   =     -1140.94454298
  -exchange      EXHF   =         0.00000000
  -V(xc)+E(xc)   XCENC  =        64.23073194
  PAW double counting   =       700.82501663     -709.28092584
  entropy T*S    EENTRO =        -0.00000000
  eigenvalues    EBANDS =      -286.35434044
  atomic energy  EATOM  =       914.71024870
  Solvation  Ediel_sol  =         0.00000000
  ---------------------------------------------------
  free energy    TOTEN  =       -26.01968776 eV

  energy without entropy =      -26.01968776  energy(sigma->0) =      -26.01968776


--------------------------------------------------------------------------------------------------------




--------------------------------------- Iteration      1(   4)  ---------------------------------------


     EDDAV:  cpu time    7.2610: real time    7.2711
       DOS:  cpu time    0.0009: real time    0.0009
    --------------------------------------------
      LOOP:  cpu time    7.2619: real time    7.2720

 eigenvalue-minimisations  :    28
 total energy-change (2. order) :-0.6208798E+01  (-0.6208434E+01)
 number of electron      16.0000000 magnetization 
 augmentation part       16.0000000 magnetization 

 Free energy of the ion-electron system (eV)
  ---------------------------------------------------
  alpha Z        PSCENC =         0.01723541
  Ewald energy   TEWEN  =       430.77688883
  -Hartree energ DENC   =     -1140.94454298
  -exchange      EXHF   =         0.00000000
  -V(xc)+E(xc)   XCENC  =        64.23073194
  PAW double counting   =       700.82501663     -709.28092584
  entropy T*S    EENTRO =        -0.00000000
  eigenvalues    EBANDS =      -292.56313884
  atomic energy  EATOM  =       914.71024870
  Solvation  Ediel_sol  =         0.00000000
  ---------------------------------------------------
  free energy    TOTEN  =       -32.22848616 eV

  energy without entropy =      -32.22848616  energy(sigma->0) =      -32.22848616


--------------------------------------------------------------------------------------------------------




--------------------------------------- Iteration      1(   5)  ---------------------------------------


     EDDAV:  cpu time    7.2803: real time    7.2903
       DOS:  cpu time    0.0006: real time    0.0006
    CHARGE:  cpu time    1.7664: real time    1.7686
    MIXING:  cpu time    0.2448: real time    0.2451
    --------------------------------------------
      LOOP:  cpu time    9.2921: real time    9.3046

 eigenvalue-minimisations  :    28
 total energy-change (2. order) :-0.4102896E-01  (-0.4102854E-01)
 number of electron      16.0000000 magnetization 
 augmentation part        3.2957685 magnetization 

 Broyden mixing:
  rms(total) = 0.24612E+01    rms(broyden)= 0.24612E+01
  rms(prec ) = 0.24784E+01
  weight for this iteration     100.00

 Free energy of the ion-electron system (eV)
  ---------------------------------------------------
  alpha Z        PSCENC =         0.01723541
  Ewald energy   TEWEN  =       430.77688883
  -Hartree energ DENC   =     -1140.94454298
  -exchange      EXHF   =         0.00000000
  -V(xc)+E(xc)   XCENC  =        64.23073194
  PAW double counting   =       700.82501663     -709.28092584
  entropy T*S    EENTRO =        -0.00000000
  eigenvalues    EBANDS =      -292.60416780
  atomic energy  EATOM  =       914.71024870
  Solvation  Ediel_sol  =         0.00000000
  ---------------------------------------------------
  free energy    TOTEN  =       -32.26951512 eV

  energy without entropy =      -32.26951512  energy(sigma->0) =      -32.26951512


--------------------------------------------------------------------------------------------------------




--------------------------------------- Iteration      1(   6)  ---------------------------------------


    POTLOK:  cpu time   11.0318: real time   11.0550
    SETDIJ:  cpu time    0.0393: real time    0.0393
     EDDAV:  cpu time    7.2721: real time    7.2895
       DOS:  cpu time    0.0010: real time    0.0010
    CHARGE:  cpu time    1.7684: real time    1.7707
    MIXING:  cpu time    0.2405: real time    0.2479
    --------------------------------------------
      LOOP:  cpu time   20.3532: real time   20.4034

 eigenvalue-minimisations  :    28
 total energy-change (2. order) : 0.3998824E+01  (-0.1795228E+01)
 number of electron      16.0000000 magnetization 
 augmentation part        2.8049237 magnetization 

 Broyden mixing:
  rms(total) = 0.37897E+01    rms(broyden)= 0.37897E+01
  rms(prec ) = 0.37907E+01
  weight for this iteration     100.00

 eigenvalues of (default mixing * dielectric matrix)
  average eigenvalue GAMMA=   0.5837
  0.5837

 Free energy of the ion-electron system (eV)
  ---------------------------------------------------
  alpha Z        PSCENC =         0.01723541
  Ewald energy   TEWEN  =       430.77688883
  -Hartree energ DENC   =     -1189.23208113
  -exchange      EXHF   =         0.00000000
  -V(xc)+E(xc)   XCENC  =        66.88682417
  PAW double counting   =      1077.09543118    -1087.76284091
  entropy T*S    EENTRO =        -0.00000000
  eigenvalues    EBANDS =      -240.76239742
  atomic energy  EATOM  =       914.71024870
  Solvation  Ediel_sol  =         0.00000000
  ---------------------------------------------------
  free energy    TOTEN  =       -28.27069117 eV

  energy without entropy =      -28.27069117  energy(sigma->0) =      -28.27069117


--------------------------------------------------------------------------------------------------------




--------------------------------------- Iteration      1(   7)  ---------------------------------------


    POTLOK:  cpu time   11.0198: real time   11.0351
    SETDIJ:  cpu time    0.0390: real time    0.0391
     EDDAV:  cpu time    6.5807: real time    6.5898
       DOS:  cpu time    0.0008: real time    0.0008
    CHARGE:  cpu time    1.7728: real time    1.7818
    MIXING:  cpu time    0.2589: real time    0.2592
    --------------------------------------------
      LOOP:  cpu time   19.6720: real time   19.7058

 eigenvalue-minimisations  :    24
 total energy-change (2. order) :-0.1884555E+00  (-0.2870647E-01)
 number of electron      16.0000000 magnetization 
 augmentation part        2.8080216 magnetization 

 Broyden mixing:
  rms(total) = 0.46911E+01    rms(broyden)= 0.46911E+01
  rms(prec ) = 0.46922E+01
  weight for this iteration     100.00

 eigenvalues of (default mixing * dielectric matrix)
  average eigenvalue GAMMA=   1.6165
  0.9770  2.2559

 Free energy of the ion-electron system (eV)
  ---------------------------------------------------
  alpha Z        PSCENC =         0.01723541
  Ewald energy   TEWEN  =       430.77688883
  -Hartree energ DENC   =     -1185.27330302
  -exchange      EXHF   =         0.00000000
  -V(xc)+E(xc)   XCENC  =        66.70456042
  PAW double counting   =       862.66497979     -873.42672748
  entropy T*S    EENTRO =        -0.00000000
  eigenvalues    EBANDS =      -244.63302930
  atomic energy  EATOM  =       914.71024870
  Solvation  Ediel_sol  =         0.00000000
  ---------------------------------------------------
  free energy    TOTEN  =       -28.45914665 eV

  energy without entropy =      -28.45914665  energy(sigma->0) =      -28.45914665


--------------------------------------------------------------------------------------------------------




--------------------------------------- Iteration      1(   8)  ---------------------------------------


    POTLOK:  cpu time   11.0389: real time   11.0599
    SETDIJ:  cpu time    0.0391: real time    0.0391
     EDDAV:  cpu time    7.2312: real time    7.2444
       DOS:  cpu time    0.0015: real time    0.0015
    CHARGE:  cpu time    1.7455: real time    1.7486
    MIXING:  cpu time    0.2627: real time    0.2630
    --------------------------------------------
      LOOP:  cpu time   20.3189: real time   20.3566

 eigenvalue-minimisations  :    28
 total energy-change (2. order) : 0.5985416E+00  (-0.7730253E-01)
 number of electron      16.0000000 magnetization 
 augmentation part        2.7295045 magnetization 

 Broyden mixing:
  rms(total) = 0.52830E+00    rms(broyden)= 0.52830E+00
  rms(prec ) = 0.52920E+00
  weight for this iteration     100.00

 eigenvalues of (default mixing * dielectric matrix)
  average eigenvalue GAMMA=   1.3431
  2.2943  1.1206  0.6143

 Free energy of the ion-electron system (eV)
  ---------------------------------------------------
  alpha Z        PSCENC =         0.01723541
  Ewald energy   TEWEN  =       430.77688883
  -Hartree energ DENC   =     -1210.06054006
  -exchange      EXHF   =         0.00000000
  -V(xc)+E(xc)   XCENC  =        67.91170597
  PAW double counting   =      2419.41265711    -2429.71998866
  entropy T*S    EENTRO =        -0.00000000
  eigenvalues    EBANDS =      -220.90881229
  atomic energy  EATOM  =       914.71024870
  Solvation  Ediel_sol  =         0.00000000
  ---------------------------------------------------
  free energy    TOTEN  =       -27.86060500 eV

  energy without entropy =      -27.86060500  energy(sigma->0) =      -27.86060500


--------------------------------------------------------------------------------------------------------




--------------------------------------- Iteration      1(   9)  ---------------------------------------


    POTLOK:  cpu time   11.0282: real time   11.0428
    SETDIJ:  cpu time    0.0391: real time    0.0392
     EDDAV:  cpu time    7.9416: real time    7.9533
       DOS:  cpu time    0.0007: real time    0.0007
    CHARGE:  cpu time    1.6992: real time    1.7107
    MIXING:  cpu time    0.2686: real time    0.2689
    --------------------------------------------
      LOOP:  cpu time   20.9775: real time   21.0156

 eigenvalue-minimisations  :    32
 total energy-change (2. order) : 0.2151351E-01  (-0.8221450E-02)
 number of electron      16.0000000 magnetization 
 augmentation part        2.7615472 magnetization 

 Broyden mixing:
  rms(total) = 0.13537E+00    rms(broyden)= 0.13537E+00
  rms(prec ) = 0.13677E+00
  weight for this iteration     100.00

 eigenvalues of (default mixing * dielectric matrix)
  average eigenvalue GAMMA=   1.0633
  2.2775  1.1094  0.4765  0.3899

 Free energy of the ion-electron system (eV)
  ---------------------------------------------------
  alpha Z        PSCENC =         0.01723541
  Ewald energy   TEWEN  =       430.77688883
  -Hartree energ DENC   =     -1209.01566439
  -exchange      EXHF   =         0.00000000
  -V(xc)+E(xc)   XCENC  =        67.83141875
  PAW double counting   =      2485.95366583    -2496.10127647
  entropy T*S    EENTRO =        -0.00000000
  eigenvalues    EBANDS =      -222.01160815
  atomic energy  EATOM  =       914.71024870
  Solvation  Ediel_sol  =         0.00000000
  ---------------------------------------------------
  free energy    TOTEN  =       -27.83909149 eV

  energy without entropy =      -27.83909149  energy(sigma->0) =      -27.83909149


--------------------------------------------------------------------------------------------------------




--------------------------------------- Iteration      1(  10)  ---------------------------------------


    POTLOK:  cpu time   11.0332: real time   11.0477
    SETDIJ:  cpu time    0.0391: real time    0.0391
     EDDAV:  cpu time    7.9514: real time    7.9625
       DOS:  cpu time    0.0006: real time    0.0006
    CHARGE:  cpu time    1.7682: real time    1.7706
    MIXING:  cpu time    0.2817: real time    0.2821
    --------------------------------------------
      LOOP:  cpu time   21.0741: real time   21.1025

 eigenvalue-minimisations  :    32
 total energy-change (2. order) :-0.9089346E-03  (-0.1498619E-03)
 number of electron      16.0000000 magnetization 
 augmentation part        2.7635946 magnetization 

 Broyden mixing:
  rms(total) = 0.12161E+00    rms(broyden)= 0.12161E+00
  rms(prec ) = 0.12293E+00
  weight for this iteration     100.00

 eigenvalues of (default mixing * dielectric matrix)
  average eigenvalue GAMMA=   1.5449
  2.4483  2.4483  1.2161  0.8059  0.8059

 Free energy of the ion-electron system (eV)
  ---------------------------------------------------
  alpha Z        PSCENC =         0.01723541
  Ewald energy   TEWEN  =       430.77688883
  -Hartree energ DENC   =     -1209.22976953
  -exchange      EXHF   =         0.00000000
  -V(xc)+E(xc)   XCENC  =        67.83481602
  PAW double counting   =      2479.27944514    -2489.42769591
  entropy T*S    EENTRO =        -0.00000000
  eigenvalues    EBANDS =      -221.80116909
  atomic energy  EATOM  =       914.71024870
  Solvation  Ediel_sol  =         0.00000000
  ---------------------------------------------------
  free energy    TOTEN  =       -27.84000042 eV

  energy without entropy =      -27.84000042  energy(sigma->0) =      -27.84000042


--------------------------------------------------------------------------------------------------------




--------------------------------------- Iteration      1(  11)  ---------------------------------------


    POTLOK:  cpu time   11.0441: real time   11.0588
    SETDIJ:  cpu time    0.0392: real time    0.0392
     EDDAV:  cpu time    6.5782: real time    6.5872
       DOS:  cpu time    0.0021: real time    0.0021
    CHARGE:  cpu time    1.7675: real time    1.7697
    MIXING:  cpu time    0.2812: real time    0.2815
    --------------------------------------------
      LOOP:  cpu time   19.7121: real time   19.7384

 eigenvalue-minimisations  :    24
 total energy-change (2. order) :-0.7737395E-02  (-0.1838844E-02)
 number of electron      16.0000000 magnetization 
 augmentation part        2.7717949 magnetization 

 Broyden mixing:
  rms(total) = 0.29052E-01    rms(broyden)= 0.29052E-01
  rms(prec ) = 0.30445E-01
  weight for this iteration     100.00

 eigenvalues of (default mixing * dielectric matrix)
  average eigenvalue GAMMA=   1.5316
  2.9724  2.5689  1.1325  0.8895  0.8895  0.7370

 Free energy of the ion-electron system (eV)
  ---------------------------------------------------
  alpha Z        PSCENC =         0.01723541
  Ewald energy   TEWEN  =       430.77688883
  -Hartree energ DENC   =     -1211.81025955
  -exchange      EXHF   =         0.00000000
  -V(xc)+E(xc)   XCENC  =        67.90565374
  PAW double counting   =      2485.41322869    -2495.54143249
  entropy T*S    EENTRO =        -0.00000000
  eigenvalues    EBANDS =      -219.31930114
  atomic energy  EATOM  =       914.71024870
  Solvation  Ediel_sol  =         0.00000000
  ---------------------------------------------------
  free energy    TOTEN  =       -27.84773782 eV

  energy without entropy =      -27.84773782  energy(sigma->0) =      -27.84773782


--------------------------------------------------------------------------------------------------------




--------------------------------------- Iteration      1(  12)  ---------------------------------------


    POTLOK:  cpu time   11.0735: real time   11.0878
    SETDIJ:  cpu time    0.0390: real time    0.0390
     EDDAV:  cpu time    7.9663: real time    7.9868
       DOS:  cpu time    0.0006: real time    0.0006
    CHARGE:  cpu time    1.6948: real time    1.7049
    MIXING:  cpu time    0.3019: real time    0.3069
    --------------------------------------------
      LOOP:  cpu time   21.0761: real time   21.1260

 eigenvalue-minimisations  :    32
 total energy-change (2. order) :-0.5600719E-02  (-0.1502156E-03)
 number of electron      16.0000000 magnetization 
 augmentation part        2.7720341 magnetization 

 Broyden mixing:
  rms(total) = 0.20287E-01    rms(broyden)= 0.20287E-01
  rms(prec ) = 0.21460E-01
  weight for this iteration     100.00

 eigenvalues of (default mixing * dielectric matrix)
  average eigenvalue GAMMA=   1.5811
  3.2189  2.4815  1.3981  1.3981  0.7789  0.7789  1.0134

 Free energy of the ion-electron system (eV)
  ---------------------------------------------------
  alpha Z        PSCENC =         0.01723541
  Ewald energy   TEWEN  =       430.77688883
  -Hartree energ DENC   =     -1212.59363138
  -exchange      EXHF   =         0.00000000
  -V(xc)+E(xc)   XCENC  =        67.91432391
  PAW double counting   =      2472.16669114    -2482.29180241
  entropy T*S    EENTRO =        -0.00000000
  eigenvalues    EBANDS =      -218.55329274
  atomic energy  EATOM  =       914.71024870
  Solvation  Ediel_sol  =         0.00000000
  ---------------------------------------------------
  free energy    TOTEN  =       -27.85333854 eV

  energy without entropy =      -27.85333854  energy(sigma->0) =      -27.85333854


--------------------------------------------------------------------------------------------------------




--------------------------------------- Iteration      1(  13)  ---------------------------------------


    POTLOK:  cpu time   11.0525: real time   11.0669
    SETDIJ:  cpu time    0.0389: real time    0.0390
     EDDAV:  cpu time    7.3131: real time    7.3233
       DOS:  cpu time    0.0008: real time    0.0008
    CHARGE:  cpu time    1.7702: real time    1.7726
    MIXING:  cpu time    0.2883: real time    0.2887
    --------------------------------------------
      LOOP:  cpu time   20.4638: real time   20.4911

 eigenvalue-minimisations  :    28
 total energy-change (2. order) :-0.9102079E-02  (-0.2415547E-03)
 number of electron      16.0000000 magnetization 
 augmentation part        2.7698915 magnetization 

 Broyden mixing:
  rms(total) = 0.11889E-01    rms(broyden)= 0.11889E-01
  rms(prec ) = 0.12502E-01
  weight for this iteration     100.00

 eigenvalues of (default mixing * dielectric matrix)
  average eigenvalue GAMMA=   1.6268
  3.8926  2.2634  2.2634  1.2618  0.9914  0.7637  0.7888  0.7888

 Free energy of the ion-electron system (eV)
  ---------------------------------------------------
  alpha Z        PSCENC =         0.01723541
  Ewald energy   TEWEN  =       430.77688883
  -Hartree energ DENC   =     -1213.55591372
  -exchange      EXHF   =         0.00000000
  -V(xc)+E(xc)   XCENC  =        67.90884062
  PAW double counting   =      2472.08264606    -2482.19107147
  entropy T*S    EENTRO =        -0.00000000
  eigenvalues    EBANDS =      -217.61131505
  atomic energy  EATOM  =       914.71024870
  Solvation  Ediel_sol  =         0.00000000
  ---------------------------------------------------
  free energy    TOTEN  =       -27.86244062 eV

  energy without entropy =      -27.86244062  energy(sigma->0) =      -27.86244062


--------------------------------------------------------------------------------------------------------




--------------------------------------- Iteration      1(  14)  ---------------------------------------


    POTLOK:  cpu time   11.0754: real time   11.0905
    SETDIJ:  cpu time    0.0389: real time    0.0389
     EDDAV:  cpu time    7.2492: real time    7.2623
       DOS:  cpu time    0.0012: real time    0.0012
    CHARGE:  cpu time    1.7664: real time    1.7687
    MIXING:  cpu time    0.2922: real time    0.2982
    --------------------------------------------
      LOOP:  cpu time   20.4234: real time   20.4598

 eigenvalue-minimisations  :    28
 total energy-change (2. order) :-0.3847281E-02  (-0.7476812E-04)
 number of electron      16.0000000 magnetization 
 augmentation part        2.7686646 magnetization 

 Broyden mixing:
  rms(total) = 0.58959E-02    rms(broyden)= 0.58959E-02
  rms(prec ) = 0.64227E-02
  weight for this iteration     100.00

 eigenvalues of (default mixing * dielectric matrix)
  average eigenvalue GAMMA=   2.1226
  7.0478  2.9761  2.3193  1.9425  1.3083  0.7800  0.8611  0.8611  1.0074

 Free energy of the ion-electron system (eV)
  ---------------------------------------------------
  alpha Z        PSCENC =         0.01723541
  Ewald energy   TEWEN  =       430.77688883
  -Hartree energ DENC   =     -1214.06501945
  -exchange      EXHF   =         0.00000000
  -V(xc)+E(xc)   XCENC  =        67.91040562
  PAW double counting   =      2470.32514337    -2480.42997477
  entropy T*S    EENTRO =        -0.00000000
  eigenvalues    EBANDS =      -217.11121561
  atomic energy  EATOM  =       914.71024870
  Solvation  Ediel_sol  =         0.00000000
  ---------------------------------------------------
  free energy    TOTEN  =       -27.86628790 eV

  energy without entropy =      -27.86628790  energy(sigma->0) =      -27.86628790


--------------------------------------------------------------------------------------------------------




--------------------------------------- Iteration      1(  15)  ---------------------------------------


    POTLOK:  cpu time   11.0730: real time   11.0881
    SETDIJ:  cpu time    0.0390: real time    0.0390
     EDDAV:  cpu time    7.2150: real time    7.2253
       DOS:  cpu time    0.0013: real time    0.0013
    CHARGE:  cpu time    1.7298: real time    1.7321
    MIXING:  cpu time    0.3428: real time    0.3432
    --------------------------------------------
      LOOP:  cpu time   20.4009: real time   20.4290

 eigenvalue-minimisations  :    28
 total energy-change (2. order) :-0.5821838E-02  (-0.9459626E-04)
 number of electron      16.0000000 magnetization 
 augmentation part        2.7678409 magnetization 

 Broyden mixing:
  rms(total) = 0.44986E-02    rms(broyden)= 0.44986E-02
  rms(prec ) = 0.46426E-02
  weight for this iteration     100.00

 eigenvalues of (default mixing * dielectric matrix)
  average eigenvalue GAMMA=   1.8687
  6.0455  2.9388  2.3068  1.9229  1.3097  1.0544  0.8501  0.8501  0.7604  0.6487

 Free energy of the ion-electron system (eV)
  ---------------------------------------------------
  alpha Z        PSCENC =         0.01723541
  Ewald energy   TEWEN  =       430.77688883
  -Hartree energ DENC   =     -1214.51493034
  -exchange      EXHF   =         0.00000000
  -V(xc)+E(xc)   XCENC  =        67.90649008
  PAW double counting   =      2467.27497494    -2477.37896637
  entropy T*S    EENTRO =        -0.00000000
  eigenvalues    EBANDS =      -216.66405098
  atomic energy  EATOM  =       914.71024870
  Solvation  Ediel_sol  =         0.00000000
  ---------------------------------------------------
  free energy    TOTEN  =       -27.87210974 eV

  energy without entropy =      -27.87210974  energy(sigma->0) =      -27.87210974


--------------------------------------------------------------------------------------------------------




--------------------------------------- Iteration      1(  16)  ---------------------------------------


    POTLOK:  cpu time   11.0660: real time   11.0812
    SETDIJ:  cpu time    0.0390: real time    0.0390
     EDDAV:  cpu time    7.9718: real time    7.9890
       DOS:  cpu time    0.0015: real time    0.0015
    CHARGE:  cpu time    1.7093: real time    1.7116
    MIXING:  cpu time    0.3537: real time    0.3541
    --------------------------------------------
      LOOP:  cpu time   21.1413: real time   21.1765

 eigenvalue-minimisations  :    32
 total energy-change (2. order) :-0.1793018E-03  (-0.2997945E-05)
 number of electron      16.0000000 magnetization 
 augmentation part        2.7677332 magnetization 

 Broyden mixing:
  rms(total) = 0.36365E-02    rms(broyden)= 0.36365E-02
  rms(prec ) = 0.38162E-02
  weight for this iteration     100.00

 eigenvalues of (default mixing * dielectric matrix)
  average eigenvalue GAMMA=   1.8354
  5.9843  2.8757  2.1797  1.6446  1.6446  1.2870  1.0651  1.0651  0.7739  0.8346
  0.8346

 Free energy of the ion-electron system (eV)
  ---------------------------------------------------
  alpha Z        PSCENC =         0.01723541
  Ewald energy   TEWEN  =       430.77688883
  -Hartree energ DENC   =     -1214.47667909
  -exchange      EXHF   =         0.00000000
  -V(xc)+E(xc)   XCENC  =        67.90561123
  PAW double counting   =      2467.88391942    -2477.98763613
  entropy T*S    EENTRO =        -0.00000000
  eigenvalues    EBANDS =      -216.70187740
  atomic energy  EATOM  =       914.71024870
  Solvation  Ediel_sol  =         0.00000000
  ---------------------------------------------------
  free energy    TOTEN  =       -27.87228904 eV

  energy without entropy =      -27.87228904  energy(sigma->0) =      -27.87228904


--------------------------------------------------------------------------------------------------------




--------------------------------------- Iteration      1(  17)  ---------------------------------------


    POTLOK:  cpu time   11.0619: real time   11.0762
    SETDIJ:  cpu time    0.0395: real time    0.0395
     EDDAV:  cpu time    7.2879: real time    7.2985
       DOS:  cpu time    0.0007: real time    0.0007
    CHARGE:  cpu time    1.7620: real time    1.7644
    MIXING:  cpu time    0.3304: real time    0.3308
    --------------------------------------------
      LOOP:  cpu time   20.4823: real time   20.5100

 eigenvalue-minimisations  :    28
 total energy-change (2. order) :-0.2578389E-02  (-0.2349346E-04)
 number of electron      16.0000000 magnetization 
 augmentation part        2.7688975 magnetization 

 Broyden mixing:
  rms(total) = 0.43945E-02    rms(broyden)= 0.43945E-02
  rms(prec ) = 0.44590E-02
  weight for this iteration     100.00

 eigenvalues of (default mixing * dielectric matrix)
  average eigenvalue GAMMA=   2.1146
  7.7626  4.1212  2.4886  2.4886  2.1688  1.2031  1.0500  0.7718  0.8665  0.8665
  0.7939  0.7939

 Free energy of the ion-electron system (eV)
  ---------------------------------------------------
  alpha Z        PSCENC =         0.01723541
  Ewald energy   TEWEN  =       430.77688883
  -Hartree energ DENC   =     -1214.44942064
  -exchange      EXHF   =         0.00000000
  -V(xc)+E(xc)   XCENC  =        67.89672580
  PAW double counting   =      2466.92668737    -2477.02672238
  entropy T*S    EENTRO =        -0.00000000
  eigenvalues    EBANDS =      -216.72651052
  atomic energy  EATOM  =       914.71024870
  Solvation  Ediel_sol  =         0.00000000
  ---------------------------------------------------
  free energy    TOTEN  =       -27.87486743 eV

  energy without entropy =      -27.87486743  energy(sigma->0) =      -27.87486743


--------------------------------------------------------------------------------------------------------




--------------------------------------- Iteration      1(  18)  ---------------------------------------


    POTLOK:  cpu time   11.0554: real time   11.0700
    SETDIJ:  cpu time    0.0391: real time    0.0391
     EDDAV:  cpu time    7.9817: real time    7.9956
       DOS:  cpu time    0.0008: real time    0.0008
    CHARGE:  cpu time    1.7444: real time    1.7467
    MIXING:  cpu time    0.3579: real time    0.3583
    --------------------------------------------
      LOOP:  cpu time   21.1792: real time   21.2105

 eigenvalue-minimisations  :    32
 total energy-change (2. order) :-0.1245655E-02  (-0.1618920E-04)
 number of electron      16.0000000 magnetization 
 augmentation part        2.7682914 magnetization 

 Broyden mixing:
  rms(total) = 0.18099E-02    rms(broyden)= 0.18099E-02
  rms(prec ) = 0.18388E-02
  weight for this iteration     100.00

 eigenvalues of (default mixing * dielectric matrix)
  average eigenvalue GAMMA=   2.0804
  7.9718  4.5003  2.6574  2.3861  2.0330  1.2853  0.9380  0.9380  1.0279  0.8492
  0.8492  0.7845  0.8248

 Free energy of the ion-electron system (eV)
  ---------------------------------------------------
  alpha Z        PSCENC =         0.01723541
  Ewald energy   TEWEN  =       430.77688883
  -Hartree energ DENC   =     -1214.56932154
  -exchange      EXHF   =         0.00000000
  -V(xc)+E(xc)   XCENC  =        67.89810101
  PAW double counting   =      2467.67045411    -2477.77286058
  entropy T*S    EENTRO =        -0.00000000
  eigenvalues    EBANDS =      -216.60685902
  atomic energy  EATOM  =       914.71024870
  Solvation  Ediel_sol  =         0.00000000
  ---------------------------------------------------
  free energy    TOTEN  =       -27.87611308 eV

  energy without entropy =      -27.87611308  energy(sigma->0) =      -27.87611308


--------------------------------------------------------------------------------------------------------




--------------------------------------- Iteration      1(  19)  ---------------------------------------


    POTLOK:  cpu time   11.0566: real time   11.0772
    SETDIJ:  cpu time    0.0390: real time    0.0390
     EDDAV:  cpu time    7.9977: real time    8.0089
       DOS:  cpu time    0.0004: real time    0.0004
    CHARGE:  cpu time    1.7096: real time    1.7118
    MIXING:  cpu time    0.3908: real time    0.3912
    --------------------------------------------
      LOOP:  cpu time   21.1939: real time   21.2285

 eigenvalue-minimisations  :    32
 total energy-change (2. order) :-0.3129541E-03  (-0.1361884E-05)
 number of electron      16.0000000 magnetization 
 augmentation part        2.7680840 magnetization 

 Broyden mixing:
  rms(total) = 0.15043E-02    rms(broyden)= 0.15043E-02
  rms(prec ) = 0.15191E-02
  weight for this iteration     100.00

 eigenvalues of (default mixing * dielectric matrix)
  average eigenvalue GAMMA=   2.1468
  8.3935  5.0092  2.6225  2.6225  2.0081  2.0081  1.1510  1.1510  0.9359  0.9359
  0.8195  0.8195  0.7891  0.7891

 Free energy of the ion-electron system (eV)
  ---------------------------------------------------
  alpha Z        PSCENC =         0.01723541
  Ewald energy   TEWEN  =       430.77688883
  -Hartree energ DENC   =     -1214.59153189
  -exchange      EXHF   =         0.00000000
  -V(xc)+E(xc)   XCENC  =        67.89883252
  PAW double counting   =      2468.17825369    -2478.28102477
  entropy T*S    EENTRO =        -0.00000000
  eigenvalues    EBANDS =      -216.58532853
  atomic energy  EATOM  =       914.71024870
  Solvation  Ediel_sol  =         0.00000000
  ---------------------------------------------------
  free energy    TOTEN  =       -27.87642604 eV

  energy without entropy =      -27.87642604  energy(sigma->0) =      -27.87642604


--------------------------------------------------------------------------------------------------------




--------------------------------------- Iteration      1(  20)  ---------------------------------------


    POTLOK:  cpu time   11.0462: real time   11.0692
    SETDIJ:  cpu time    0.0390: real time    0.0391
     EDDAV:  cpu time    7.9976: real time    8.0088
       DOS:  cpu time    0.0009: real time    0.0009
    CHARGE:  cpu time    1.7653: real time    1.7677
    MIXING:  cpu time    0.3684: real time    0.3689
    --------------------------------------------
      LOOP:  cpu time   21.2175: real time   21.2544

 eigenvalue-minimisations  :    32
 total energy-change (2. order) :-0.3313044E-03  (-0.7274570E-06)
 number of electron      16.0000000 magnetization 
 augmentation part        2.7679550 magnetization 

 Broyden mixing:
  rms(total) = 0.43769E-03    rms(broyden)= 0.43769E-03
  rms(prec ) = 0.45322E-03
  weight for this iteration     100.00

 eigenvalues of (default mixing * dielectric matrix)
  average eigenvalue GAMMA=   2.1740
  8.6204  5.4391  3.1490  2.3319  2.3319  2.1899  1.2338  1.0424  1.0424  1.0162
  0.7759  0.8351  0.8351  0.8833  0.8833

 Free energy of the ion-electron system (eV)
  ---------------------------------------------------
  alpha Z        PSCENC =         0.01723541
  Ewald energy   TEWEN  =       430.77688883
  -Hartree energ DENC   =     -1214.61175256
  -exchange      EXHF   =         0.00000000
  -V(xc)+E(xc)   XCENC  =        67.89917650
  PAW double counting   =      2467.84614143    -2477.94936569
  entropy T*S    EENTRO =        -0.00000000
  eigenvalues    EBANDS =      -216.56532996
  atomic energy  EATOM  =       914.71024870
  Solvation  Ediel_sol  =         0.00000000
  ---------------------------------------------------
  free energy    TOTEN  =       -27.87675734 eV

  energy without entropy =      -27.87675734  energy(sigma->0) =      -27.87675734


--------------------------------------------------------------------------------------------------------




--------------------------------------- Iteration      1(  21)  ---------------------------------------


    POTLOK:  cpu time   11.0483: real time   11.0627
    SETDIJ:  cpu time    0.0390: real time    0.0390
     EDDAV:  cpu time    7.9574: real time    7.9687
       DOS:  cpu time    0.0009: real time    0.0009
    CHARGE:  cpu time    1.7604: real time    1.7628
    MIXING:  cpu time    0.3741: real time    0.3839
    --------------------------------------------
      LOOP:  cpu time   21.1801: real time   21.2180

 eigenvalue-minimisations  :    32
 total energy-change (2. order) :-0.1447577E-03  (-0.2281890E-06)
 number of electron      16.0000000 magnetization 
 augmentation part        2.7678867 magnetization 

 Broyden mixing:
  rms(total) = 0.38396E-03    rms(broyden)= 0.38396E-03
  rms(prec ) = 0.39331E-03
  weight for this iteration     100.00

 eigenvalues of (default mixing * dielectric matrix)
  average eigenvalue GAMMA=   2.2997
  9.1479  5.9684  3.8273  2.7486  2.2578  2.1613  2.1613  1.1663  1.1663  1.0265
  0.9549  0.9549  0.8320  0.8320  0.7950  0.7950

 Free energy of the ion-electron system (eV)
  ---------------------------------------------------
  alpha Z        PSCENC =         0.01723541
  Ewald energy   TEWEN  =       430.77688883
  -Hartree energ DENC   =     -1214.62516339
  -exchange      EXHF   =         0.00000000
  -V(xc)+E(xc)   XCENC  =        67.89943086
  PAW double counting   =      2467.96129705    -2478.06464278
  entropy T*S    EENTRO =        -0.00000000
  eigenvalues    EBANDS =      -216.55219678
  atomic energy  EATOM  =       914.71024870
  Solvation  Ediel_sol  =         0.00000000
  ---------------------------------------------------
  free energy    TOTEN  =       -27.87690210 eV

  energy without entropy =      -27.87690210  energy(sigma->0) =      -27.87690210


--------------------------------------------------------------------------------------------------------




--------------------------------------- Iteration      1(  22)  ---------------------------------------


    POTLOK:  cpu time   11.0331: real time   11.0474
    SETDIJ:  cpu time    0.0390: real time    0.0390
     EDDAV:  cpu time    6.4829: real time    6.4921
       DOS:  cpu time    0.0015: real time    0.0015
    CHARGE:  cpu time    1.7435: real time    1.7461
    MIXING:  cpu time    0.4062: real time    0.4068
    --------------------------------------------
      LOOP:  cpu time   19.7064: real time   19.7329

 eigenvalue-minimisations  :    24
 total energy-change (2. order) :-0.1020788E-03  (-0.2232815E-06)
 number of electron      16.0000000 magnetization 
 augmentation part        2.7680202 magnetization 

 Broyden mixing:
  rms(total) = 0.16360E-03    rms(broyden)= 0.16360E-03
  rms(prec ) = 0.16650E-03
  weight for this iteration     100.00

 eigenvalues of (default mixing * dielectric matrix)
  average eigenvalue GAMMA=   2.2547
  9.2582  6.1251  4.1996  2.5972  2.5972  1.8866  1.8866  1.2825  1.2825  1.0199
  1.0199  0.9578  0.9578  0.8307  0.8307  0.7992  0.7992

 Free energy of the ion-electron system (eV)
  ---------------------------------------------------
  alpha Z        PSCENC =         0.01723541
  Ewald energy   TEWEN  =       430.77688883
  -Hartree energ DENC   =     -1214.61526039
  -exchange      EXHF   =         0.00000000
  -V(xc)+E(xc)   XCENC  =        67.89845064
  PAW double counting   =      2467.62027156    -2477.72336953
  entropy T*S    EENTRO =        -0.00000000
  eigenvalues    EBANDS =      -216.56146940
  atomic energy  EATOM  =       914.71024870
  Solvation  Ediel_sol  =         0.00000000
  ---------------------------------------------------
  free energy    TOTEN  =       -27.87700418 eV

  energy without entropy =      -27.87700418  energy(sigma->0) =      -27.87700418


--------------------------------------------------------------------------------------------------------




--------------------------------------- Iteration      1(  23)  ---------------------------------------


    POTLOK:  cpu time   11.0184: real time   11.0328
    SETDIJ:  cpu time    0.0392: real time    0.0392
     EDDAV:  cpu time    6.5761: real time    6.5854
       DOS:  cpu time    0.0004: real time    0.0004
    CHARGE:  cpu time    1.7373: real time    1.7396
    MIXING:  cpu time    0.4394: real time    0.4400
    --------------------------------------------
      LOOP:  cpu time   19.8108: real time   19.8372

 eigenvalue-minimisations  :    24
 total energy-change (2. order) :-0.1457992E-04  (-0.8185165E-08)
 number of electron      16.0000000 magnetization 
 augmentation part        2.7679992 magnetization 

 Broyden mixing:
  rms(total) = 0.91899E-04    rms(broyden)= 0.91899E-04
  rms(prec ) = 0.94270E-04
  weight for this iteration     100.00

 eigenvalues of (default mixing * dielectric matrix)
  average eigenvalue GAMMA=   2.3443
  9.3560  6.4608  4.4610  2.8718  2.8718  2.4466  2.3269  1.6380  1.2568  1.2568
  1.1108  0.9964  0.9254  0.9254  0.8270  0.8270  0.7852  0.8530

 Free energy of the ion-electron system (eV)
  ---------------------------------------------------
  alpha Z        PSCENC =         0.01723541
  Ewald energy   TEWEN  =       430.77688883
  -Hartree energ DENC   =     -1214.61828009
  -exchange      EXHF   =         0.00000000
  -V(xc)+E(xc)   XCENC  =        67.89854603
  PAW double counting   =      2467.67188722    -2477.77500667
  entropy T*S    EENTRO =        -0.00000000
  eigenvalues    EBANDS =      -216.55853819
  atomic energy  EATOM  =       914.71024870
  Solvation  Ediel_sol  =         0.00000000
  ---------------------------------------------------
  free energy    TOTEN  =       -27.87701876 eV

  energy without entropy =      -27.87701876  energy(sigma->0) =      -27.87701876


--------------------------------------------------------------------------------------------------------




--------------------------------------- Iteration      1(  24)  ---------------------------------------


    POTLOK:  cpu time   11.0010: real time   11.0158
    SETDIJ:  cpu time    0.0389: real time    0.0389
     EDDAV:  cpu time    5.1145: real time    5.1215
       DOS:  cpu time    0.0021: real time    0.0021
    CHARGE:  cpu time    1.7476: real time    1.7499
    MIXING:  cpu time    0.4430: real time    0.4436
    --------------------------------------------
      LOOP:  cpu time   18.3471: real time   18.3719

 eigenvalue-minimisations  :    16
 total energy-change (2. order) :-0.2279814E-04  (-0.8747627E-08)
 number of electron      16.0000000 magnetization 
 augmentation part        2.7679926 magnetization 

 Broyden mixing:
  rms(total) = 0.49120E-04    rms(broyden)= 0.49120E-04
  rms(prec ) = 0.49920E-04
  weight for this iteration     100.00

 eigenvalues of (default mixing * dielectric matrix)
  average eigenvalue GAMMA=   2.2985
  9.4424  6.8247  4.7896  3.3099  2.4908  2.4908  1.8805  1.8805  1.2718  1.2718
  0.9854  0.9854  0.8271  0.8271  0.9595  0.9595  0.7861  0.8439  0.8439

 Free energy of the ion-electron system (eV)
  ---------------------------------------------------
  alpha Z        PSCENC =         0.01723541
  Ewald energy   TEWEN  =       430.77688883
  -Hartree energ DENC   =     -1214.61916086
  -exchange      EXHF   =         0.00000000
  -V(xc)+E(xc)   XCENC  =        67.89856492
  PAW double counting   =      2467.73677947    -2477.83990038
  entropy T*S    EENTRO =        -0.00000000
  eigenvalues    EBANDS =      -216.55769765
  atomic energy  EATOM  =       914.71024870
  Solvation  Ediel_sol  =         0.00000000
  ---------------------------------------------------
  free energy    TOTEN  =       -27.87704155 eV

  energy without entropy =      -27.87704155  energy(sigma->0) =      -27.87704155


--------------------------------------------------------------------------------------------------------




--------------------------------------- Iteration      1(  25)  ---------------------------------------


    POTLOK:  cpu time   11.0242: real time   11.0387
    SETDIJ:  cpu time    0.0390: real time    0.0390
     EDDAV:  cpu time    5.0995: real time    5.1065
       DOS:  cpu time    0.0025: real time    0.0025
    CHARGE:  cpu time    1.7277: real time    1.7299
    MIXING:  cpu time    0.4745: real time    0.4752
    --------------------------------------------
      LOOP:  cpu time   18.3674: real time   18.3917

 eigenvalue-minimisations  :    16
 total energy-change (2. order) :-0.3094674E-05  (-0.3084315E-08)
 number of electron      16.0000000 magnetization 
 augmentation part        2.7679910 magnetization 

 Broyden mixing:
  rms(total) = 0.30615E-04    rms(broyden)= 0.30615E-04
  rms(prec ) = 0.31319E-04
  weight for this iteration     100.00

 eigenvalues of (default mixing * dielectric matrix)
  average eigenvalue GAMMA=   2.3596
  9.5373  6.9000  4.9402  3.2494  2.9156  2.9156  2.1309  2.1309  1.4971  1.4971
  1.2174  1.2174  0.9864  0.9328  0.9328  0.8272  0.8272  0.7854  0.8890  0.8632

 Free energy of the ion-electron system (eV)
  ---------------------------------------------------
  alpha Z        PSCENC =         0.01723541
  Ewald energy   TEWEN  =       430.77688883
  -Hartree energ DENC   =     -1214.61923209
  -exchange      EXHF   =         0.00000000
  -V(xc)+E(xc)   XCENC  =        67.89855785
  PAW double counting   =      2467.73045976    -2477.83359467
  entropy T*S    EENTRO =        -0.00000000
  eigenvalues    EBANDS =      -216.55760844
  atomic energy  EATOM  =       914.71024870
  Solvation  Ediel_sol  =         0.00000000
  ---------------------------------------------------
  free energy    TOTEN  =       -27.87704465 eV

  energy without entropy =      -27.87704465  energy(sigma->0) =      -27.87704465


--------------------------------------------------------------------------------------------------------




--------------------------------------- Iteration      1(  26)  ---------------------------------------


    POTLOK:  cpu time   10.9962: real time   11.0149
    SETDIJ:  cpu time    0.0391: real time    0.0392
     EDDAV:  cpu time    5.0869: real time    5.1024
       DOS:  cpu time    0.0009: real time    0.0009
    CHARGE:  cpu time    1.7576: real time    1.7600
    MIXING:  cpu time    0.4765: real time    0.4771
    --------------------------------------------
      LOOP:  cpu time   18.3572: real time   18.3945

 eigenvalue-minimisations  :    16
 total energy-change (2. order) :-0.4532928E-05  (-0.1585979E-08)
 number of electron      16.0000000 magnetization 
 augmentation part        2.7679916 magnetization 

 Broyden mixing:
  rms(total) = 0.18979E-04    rms(broyden)= 0.18979E-04
  rms(prec ) = 0.19352E-04
  weight for this iteration     100.00

 eigenvalues of (default mixing * dielectric matrix)
  average eigenvalue GAMMA=   2.3674
  9.5756  7.4157  5.4559  4.1344  2.9474  2.4740  2.3312  1.9475  1.9475  1.2138
  1.2138  1.1570  1.0200  0.9437  0.9437  0.8275  0.8275  0.9092  0.7824  0.8243
  0.8243

 Free energy of the ion-electron system (eV)
  ---------------------------------------------------
  alpha Z        PSCENC =         0.01723541
  Ewald energy   TEWEN  =       430.77688883
  -Hartree energ DENC   =     -1214.61944422
  -exchange      EXHF   =         0.00000000
  -V(xc)+E(xc)   XCENC  =        67.89857181
  PAW double counting   =      2467.72416262    -2477.82729576
  entropy T*S    EENTRO =        -0.00000000
  eigenvalues    EBANDS =      -216.55741656
  atomic energy  EATOM  =       914.71024870
  Solvation  Ediel_sol  =         0.00000000
  ---------------------------------------------------
  free energy    TOTEN  =       -27.87704918 eV

  energy without entropy =      -27.87704918  energy(sigma->0) =      -27.87704918


--------------------------------------------------------------------------------------------------------




--------------------------------------- Iteration      1(  27)  ---------------------------------------


    POTLOK:  cpu time   11.0340: real time   11.0482
    SETDIJ:  cpu time    0.0390: real time    0.0390
     EDDAV:  cpu time    5.1033: real time    5.1105
       DOS:  cpu time    0.0027: real time    0.0027
    CHARGE:  cpu time    1.7611: real time    1.7633
    MIXING:  cpu time    0.5042: real time    0.5049
    --------------------------------------------
      LOOP:  cpu time   18.4442: real time   18.4685

 eigenvalue-minimisations  :    16
 total energy-change (2. order) :-0.1431707E-05  (-0.1502750E-08)
 number of electron      16.0000000 magnetization 
 augmentation part        2.7679857 magnetization 

 Broyden mixing:
  rms(total) = 0.16534E-04    rms(broyden)= 0.16534E-04
  rms(prec ) = 0.16682E-04
  weight for this iteration     100.00

 eigenvalues of (default mixing * dielectric matrix)
  average eigenvalue GAMMA=   2.3644
  9.6313  7.4877  5.6663  4.2260  3.0898  2.4569  2.4569  1.9439  1.9439  1.3011
  1.3011  1.2336  1.2336  1.0372  0.9919  0.9357  0.9357  0.8272  0.8272  0.7849
  0.8525  0.8525

 Free energy of the ion-electron system (eV)
  ---------------------------------------------------
  alpha Z        PSCENC =         0.01723541
  Ewald energy   TEWEN  =       430.77688883
  -Hartree energ DENC   =     -1214.62008557
  -exchange      EXHF   =         0.00000000
  -V(xc)+E(xc)   XCENC  =        67.89860457
  PAW double counting   =      2467.73424028    -2477.83738989
  entropy T*S    EENTRO =        -0.00000000
  eigenvalues    EBANDS =      -216.55679294
  atomic energy  EATOM  =       914.71024870
  Solvation  Ediel_sol  =         0.00000000
  ---------------------------------------------------
  free energy    TOTEN  =       -27.87705061 eV

  energy without entropy =      -27.87705061  energy(sigma->0) =      -27.87705061


--------------------------------------------------------------------------------------------------------




--------------------------------------- Iteration      1(  28)  ---------------------------------------


    POTLOK:  cpu time   11.0156: real time   11.0299
    SETDIJ:  cpu time    0.0389: real time    0.0389
     EDDAV:  cpu time    6.5654: real time    6.5746
       DOS:  cpu time    0.0010: real time    0.0010
    CHARGE:  cpu time    1.7490: real time    1.7512
    MIXING:  cpu time    0.5127: real time    0.5135
    --------------------------------------------
      LOOP:  cpu time   19.8827: real time   19.9092

 eigenvalue-minimisations  :    24
 total energy-change (2. order) :-0.7197525E-06  (-0.7948504E-09)
 number of electron      16.0000000 magnetization 
 augmentation part        2.7679871 magnetization 

 Broyden mixing:
  rms(total) = 0.95372E-05    rms(broyden)= 0.95372E-05
  rms(prec ) = 0.96236E-05
  weight for this iteration     100.00

 eigenvalues of (default mixing * dielectric matrix)
  average eigenvalue GAMMA=   2.3465
  9.6545  7.5939  5.8282  4.2554  3.0994  2.4939  2.4939  2.2622  1.8729  1.8729
  1.3450  1.2261  1.2261  1.0254  0.8280  0.8280  0.9335  0.9335  0.9421  0.9421
  0.7887  0.8129  0.7107

 Free energy of the ion-electron system (eV)
  ---------------------------------------------------
  alpha Z        PSCENC =         0.01723541
  Ewald energy   TEWEN  =       430.77688883
  -Hartree energ DENC   =     -1214.62002118
  -exchange      EXHF   =         0.00000000
  -V(xc)+E(xc)   XCENC  =        67.89859436
  PAW double counting   =      2467.73245343    -2477.83559477
  entropy T*S    EENTRO =        -0.00000000
  eigenvalues    EBANDS =      -216.55685612
  atomic energy  EATOM  =       914.71024870
  Solvation  Ediel_sol  =         0.00000000
  ---------------------------------------------------
  free energy    TOTEN  =       -27.87705133 eV

  energy without entropy =      -27.87705133  energy(sigma->0) =      -27.87705133


--------------------------------------------------------------------------------------------------------




--------------------------------------- Iteration      1(  29)  ---------------------------------------


    POTLOK:  cpu time   10.9973: real time   11.0116
    SETDIJ:  cpu time    0.0390: real time    0.0390
     EDDAV:  cpu time    5.0783: real time    5.0853
       DOS:  cpu time    0.0011: real time    0.0011
    CHARGE:  cpu time    1.7624: real time    1.7647
    MIXING:  cpu time    0.5383: real time    0.5391
    --------------------------------------------
      LOOP:  cpu time   18.4163: real time   18.4407

 eigenvalue-minimisations  :    16
 total energy-change (2. order) :-0.3678695E-06  (-0.6145591E-09)
 number of electron      16.0000000 magnetization 
 augmentation part        2.7679868 magnetization 

 Broyden mixing:
  rms(total) = 0.70420E-05    rms(broyden)= 0.70420E-05
  rms(prec ) = 0.70993E-05
  weight for this iteration     100.00

 eigenvalues of (default mixing * dielectric matrix)
  average eigenvalue GAMMA=   2.3641
  9.6991  7.7165  6.0223  4.4487  3.3789  2.7181  2.7181  2.3790  1.9862  1.9862
  1.1850  1.1850  1.1959  1.1959  1.0672  0.8279  0.8279  0.9330  0.9330  0.9719
  0.9719  0.7801  0.8060  0.8060

 Free energy of the ion-electron system (eV)
  ---------------------------------------------------
  alpha Z        PSCENC =         0.01723541
  Ewald energy   TEWEN  =       430.77688883
  -Hartree energ DENC   =     -1214.61996508
  -exchange      EXHF   =         0.00000000
  -V(xc)+E(xc)   XCENC  =        67.89858830
  PAW double counting   =      2467.73188213    -2477.83502254
  entropy T*S    EENTRO =        -0.00000000
  eigenvalues    EBANDS =      -216.55690746
  atomic energy  EATOM  =       914.71024870
  Solvation  Ediel_sol  =         0.00000000
  ---------------------------------------------------
  free energy    TOTEN  =       -27.87705170 eV

  energy without entropy =      -27.87705170  energy(sigma->0) =      -27.87705170


--------------------------------------------------------------------------------------------------------




--------------------------------------- Iteration      1(  30)  ---------------------------------------


    POTLOK:  cpu time   10.9802: real time   11.0009
    SETDIJ:  cpu time    0.0392: real time    0.0392
     EDDAV:  cpu time    5.1781: real time    5.1854
       DOS:  cpu time    0.0007: real time    0.0007
    CHARGE:  cpu time    1.7651: real time    1.7675
    MIXING:  cpu time    0.5517: real time    0.5525
    --------------------------------------------
      LOOP:  cpu time   18.5150: real time   18.5462

 eigenvalue-minimisations  :    16
 total energy-change (2. order) :-0.2046622E-06  (-0.5354615E-09)
 number of electron      16.0000000 magnetization 
 augmentation part        2.7679874 magnetization 

 Broyden mixing:
  rms(total) = 0.82834E-05    rms(broyden)= 0.82834E-05
  rms(prec ) = 0.83000E-05
  weight for this iteration     100.00

 eigenvalues of (default mixing * dielectric matrix)
  average eigenvalue GAMMA=   2.3647
  9.7071  7.9375  6.2059  4.7869  3.6737  2.9917  2.4563  2.1544  2.0192  2.0192
  1.4895  1.4895  1.2232  1.2232  1.0700  0.9397  0.9397  0.8282  0.8282  0.9608
  0.9053  0.9053  0.8367  0.7870  0.7403

 Free energy of the ion-electron system (eV)
  ---------------------------------------------------
  alpha Z        PSCENC =         0.01723541
  Ewald energy   TEWEN  =       430.77688883
  -Hartree energ DENC   =     -1214.61989539
  -exchange      EXHF   =         0.00000000
  -V(xc)+E(xc)   XCENC  =        67.89858510
  PAW double counting   =      2467.73147288    -2477.83461302
  entropy T*S    EENTRO =        -0.00000000
  eigenvalues    EBANDS =      -216.55697442
  atomic energy  EATOM  =       914.71024870
  Solvation  Ediel_sol  =         0.00000000
  ---------------------------------------------------
  free energy    TOTEN  =       -27.87705191 eV

  energy without entropy =      -27.87705191  energy(sigma->0) =      -27.87705191


--------------------------------------------------------------------------------------------------------




--------------------------------------- Iteration      1(  31)  ---------------------------------------


    POTLOK:  cpu time   11.0011: real time   11.0156
    SETDIJ:  cpu time    0.0390: real time    0.0390
     EDDAV:  cpu time    6.5123: real time    6.5216
       DOS:  cpu time    0.0013: real time    0.0013
    CHARGE:  cpu time    1.7376: real time    1.7400
    MIXING:  cpu time    0.5736: real time    0.5745
    --------------------------------------------
      LOOP:  cpu time   19.8648: real time   19.8919

 eigenvalue-minimisations  :    24
 total energy-change (2. order) :-0.1111855E-06  (-0.4665086E-09)
 number of electron      16.0000000 magnetization 
 augmentation part        2.7679876 magnetization 

 Broyden mixing:
  rms(total) = 0.13547E-05    rms(broyden)= 0.13547E-05
  rms(prec ) = 0.13856E-05
  weight for this iteration     100.00

 eigenvalues of (default mixing * dielectric matrix)
  average eigenvalue GAMMA=   2.3474
  9.7018  8.0892  6.3089  4.9791  3.7419  2.9432  2.4857  2.3504  1.9275  1.9275
  1.5868  1.5868  1.2129  1.2129  1.1872  0.9984  0.9984  1.0090  0.9387  0.9387
  0.8277  0.8277  0.8660  0.8660  0.7860  0.7329

 Free energy of the ion-electron system (eV)
  ---------------------------------------------------
  alpha Z        PSCENC =         0.01723541
  Ewald energy   TEWEN  =       430.77688883
  -Hartree energ DENC   =     -1214.61983436
  -exchange      EXHF   =         0.00000000
  -V(xc)+E(xc)   XCENC  =        67.89858214
  PAW double counting   =      2467.72814932    -2477.83129332
  entropy T*S    EENTRO =        -0.00000000
  eigenvalues    EBANDS =      -216.55702873
  atomic energy  EATOM  =       914.71024870
  Solvation  Ediel_sol  =         0.00000000
  ---------------------------------------------------
  free energy    TOTEN  =       -27.87705202 eV

  energy without entropy =      -27.87705202  energy(sigma->0) =      -27.87705202


--------------------------------------------------------------------------------------------------------




--------------------------------------- Iteration      1(  32)  ---------------------------------------


    POTLOK:  cpu time   10.9955: real time   11.0185
    SETDIJ:  cpu time    0.0391: real time    0.0391
     EDDAV:  cpu time    5.1408: real time    5.1526
       DOS:  cpu time    0.0008: real time    0.0008
    --------------------------------------------
      LOOP:  cpu time   16.1761: real time   16.2109

 eigenvalue-minimisations  :    16
 total energy-change (2. order) :-0.4536264E-07  (-0.4209397E-09)
 number of electron      16.0000000 magnetization 
 augmentation part        2.7679876 magnetization 

 Free energy of the ion-electron system (eV)
  ---------------------------------------------------
  alpha Z        PSCENC =         0.01723541
  Ewald energy   TEWEN  =       430.77688883
  -Hartree energ DENC   =     -1214.61983257
  -exchange      EXHF   =         0.00000000
  -V(xc)+E(xc)   XCENC  =        67.89858244
  PAW double counting   =      2467.72717749    -2477.83032322
  entropy T*S    EENTRO =        -0.00000000
  eigenvalues    EBANDS =      -216.55702915
  atomic energy  EATOM  =       914.71024870
  Solvation  Ediel_sol  =         0.00000000
  ---------------------------------------------------
  free energy    TOTEN  =       -27.87705206 eV

  energy without entropy =      -27.87705206  energy(sigma->0) =      -27.87705206


--------------------------------------------------------------------------------------------------------




 average (electrostatic) potential at core
  the test charge radii are     0.6256  0.8742
  (the norm of the test charge is              1.0000)
       1 -41.2087       2 -41.2076       3 -41.2071       4 -41.2081       5 -90.4800
       6 -90.4795
 
 
 
 E-fermi :  -6.8836     XC(G=0):  -0.0331     alpha+bet : -0.0064


 k-point     1 :       0.0000    0.0000    0.0000
  band No.  band energies     occupation 
      1     -25.2654      2.00000
      2     -25.2643      2.00000
      3     -12.9236      2.00000
      4     -12.9215      2.00000
      5      -8.9867      2.00000
      6      -8.9237      2.00000
      7      -7.0025      2.00000
      8      -6.9910      2.00000
      9      -0.9258      0.00000
     10      -0.7289      0.00000
     11       0.0003      0.00000
     12       0.1034      0.00000


--------------------------------------------------------------------------------------------------------


 soft charge-density along one line, spin component            1
         0         1         2         3         4         5         6         7         8         9
 total charge-density along one line
 
 pseudopotential strength for first ion, spin component:            1
 -2.336  -3.707  -0.014  -0.020   0.000
 -3.707  -5.715  -0.028  -0.040   0.001
 -0.014  -0.028  -0.116   0.015  -0.000
 -0.020  -0.040   0.015  -0.106  -0.001
  0.000   0.001  -0.000  -0.001  -0.129
 total augmentation occupancy for first ion, spin component:            1
  2.828  -0.512   0.635   0.832  -0.019
 -0.512   0.212  -0.085  -0.090   0.002
  0.635  -0.085   0.196   0.172  -0.004
  0.832  -0.090   0.172   0.295  -0.005
 -0.019   0.002  -0.004  -0.005   0.103


------------------------ aborting loop because EDIFF is reached ----------------------------------------



 DIPCOR: dipole corrections for dipol
 direction  1 min pos   460, direction  2 min pos   443, direction  3 min pos   399,
 dipolmoment          -0.015584      0.000708      0.020138 electrons x Angstroem
 Tr[quadrupol]         3.028149

 energy correction for charged system         0.000000 eV
 dipol+quadrupol energy correction            0.000000 eV
 added-field ion interaction          0.000000 eV  (added to PSCEN)

 
  *************** adding dipol energy to TOTEN NOW **************** 
    CHARGE:  cpu time    1.7566: real time    1.7589
    FORLOC:  cpu time    0.4311: real time    0.4316
    FORNL :  cpu time    0.3166: real time    0.3170
    STRESS:  cpu time    3.4526: real time    3.4576
    FORHAR:  cpu time    3.2115: real time    3.2157
    MIXING:  cpu time    0.5999: real time    0.6007
    OFIELD:  cpu time    0.0000: real time    0.0000

  FORCE on cell =-STRESS in cart. coord.  units (eV):
  Direction    XX          YY          ZZ          XY          YZ          ZX
  --------------------------------------------------------------------------------------
  Alpha Z     0.01724     0.01724     0.01724
  Ewald     -50.12765   286.77132   194.13268     2.36713     1.96568    -3.90993
  Hartree   318.25337   536.20528   360.16117     0.50781     0.19721    -0.67142
  E(xc)     -72.49925   -71.91614   -71.53890     0.00951     0.00784    -0.01542
  Local    -585.51610 -1094.63114  -792.73818    -2.13082    -1.46409     3.31572
  n-local    32.27484    24.73991    22.57930    -0.12269    -0.04655     0.15706
  augment    96.22083    87.33376    81.20337    -0.14472    -0.12917     0.24090
  Kinetic   261.37730   233.95881   210.89360    -0.44805    -0.47841     0.80788
  Fock        0.00000     0.00000     0.00000     0.00000     0.00000     0.00000
  -------------------------------------------------------------------------------------
  Total       0.00057     2.47903     4.71028     0.03817     0.05252    -0.07521
  in kB       0.00002     0.09264     0.17602     0.00143     0.00196    -0.00281
  external pressure =        0.09 kB  Pullay stress =        0.00 kB


 VOLUME and BASIS-vectors are now :
 -----------------------------------------------------------------------------
  energy-cutoff  :     1000.00
  volume of cell :    42875.00
      direct lattice vectors                 reciprocal lattice vectors
    35.000000000  0.000000000  0.000000000     0.028571429  0.000000000  0.000000000
     0.000000000 35.000000000  0.000000000     0.000000000  0.028571429  0.000000000
     0.000000000  0.000000000 35.000000000     0.000000000  0.000000000  0.028571429

  length of vectors
    35.000000000 35.000000000 35.000000000     0.028571429  0.028571429  0.028571429


 FORCES acting on ions
    electron-ion (+dipol)            ewald-force                    non-local-force                 convergence-correction
 -----------------------------------------------------------------------------------------------
   -.167E+01 0.559E+02 0.731E+02   0.185E+01 -.614E+02 -.809E+02   -.145E+00 0.451E+01 0.632E+01   -.103E-07 -.750E-08 0.346E-06
   0.130E+01 0.567E+02 -.725E+02   -.144E+01 -.623E+02 0.803E+02   0.112E+00 0.458E+01 -.627E+01   0.686E-08 -.147E-07 -.361E-06
   -.269E+01 -.528E+02 0.752E+02   0.298E+01 0.580E+02 -.833E+02   -.234E+00 -.424E+01 0.650E+01   0.463E-08 0.682E-07 0.338E-06
   -.115E+01 -.595E+02 -.702E+02   0.127E+01 0.655E+02 0.778E+02   -.100E+00 -.484E+01 -.607E+01   0.104E-07 0.139E-07 -.338E-06
   0.192E+00 -.114E+02 -.315E+00   -.442E+00 0.803E+02 0.721E+00   0.243E+00 -.669E+02 -.396E+00   0.689E-08 -.443E-05 -.290E-06
   0.172E+01 0.113E+02 -.219E+01   -.422E+01 -.801E+02 0.541E+01   0.243E+01 0.668E+02 -.313E+01   0.209E-06 0.446E-05 0.203E-06
 -----------------------------------------------------------------------------------------------
   -.230E+01 0.996E-01 0.304E+01   0.000E+00 0.000E+00 0.124E-13   0.230E+01 -.995E-01 -.304E+01   0.228E-06 0.839E-07 -.101E-06
 
 
 POSITION                                       TOTAL-FORCE (eV/Angst)
 -----------------------------------------------------------------------------------
      0.01761      0.64046     34.23865         0.035233     -0.993468     -1.560455
     34.98662      0.63163      0.75455        -0.028429     -1.010141      1.549776
      0.02970      6.08138     34.21499         0.053597      0.924638     -1.601041
      0.01365      6.15327      0.72944         0.020742      1.075088      1.506054
      0.00000      1.22721      0.00000        -0.006627      1.977615      0.009714
      0.00000      5.52721      0.00000        -0.074516     -1.973732      0.095951
 -----------------------------------------------------------------------------------
    total drift:                               -0.000006      0.000102      0.000006


--------------------------------------------------------------------------------------------------------



  FREE ENERGIE OF THE ION-ELECTRON SYSTEM (eV)
  ---------------------------------------------------
  free  energy   TOTEN  =       -27.87705161 eV

  energy  without entropy=      -27.87705161  energy(sigma->0) =      -27.87705161
 


--------------------------------------------------------------------------------------------------------


    POTLOK:  cpu time   11.0623: real time   11.0801


--------------------------------------------------------------------------------------------------------


 writing wavefunctions
     LOOP+:  cpu time  892.9061: real time  894.0745
    4ORBIT:  cpu time    0.0000: real time    0.0000

 total amount of memory used by VASP MPI-rank0  1839751. kBytes
=======================================================================

   base      :      30000. kBytes
   nonl-proj :      86200. kBytes
   fftplans  :     660854. kBytes
   grid      :    1044223. kBytes
   one-center:          3. kBytes
   wavefun   :      18471. kBytes
 
  
  
 General timing and accounting informations for this job:
 ========================================================
  
                  Total CPU time used (sec):     1212.813
                            User time (sec):     1149.611
                          System time (sec):       63.202
                         Elapsed time (sec):     1215.819
  
                   Maximum memory used (kb):     2288328.
                   Average memory used (kb):           0.
  
                          Minor page faults:     23996108
                          Major page faults:          466
                 Voluntary context switches:         6650
