 vasp.6.1.2 22Jul20 (build Jan  6 2021 09:55:43) gamma-only                      
 executed on             LinuxPGI date 2021.03.02  14:37:21
 running on   32 total cores
 distrk:  each k-point on   32 cores,    1 groups
 distr:  one band on NCORE=   8 cores,    4 groups


--------------------------------------------------------------------------------------------------------


 INCAR:
 POTCAR:    PAW_PBE H_h 06Feb2004                 
 POTCAR:    PAW_PBE O_h 06Feb2004                 
 POTCAR:    PAW_PBE H_h 06Feb2004                 
   VRHFIN =H: ultrasoft test                                                                        
   LEXCH  = PE                                                                                      
   EATOM  =    12.4884 eV,    0.9179 Ry                                                             
                                                                                                    
   TITEL  = PAW_PBE H_h 06Feb2004                                                                   
   LULTRA =        F    use ultrasoft PP ?                                                          
   IUNSCR =        0    unscreen: 0-lin 1-nonlin 2-no                                               
   RPACOR =    0.000    partial core radius                                                         
   POMASS =    1.000; ZVAL   =    1.000    mass and valenz                                          
   RCORE  =    0.800    outmost cutoff radius                                                       
   RWIGS  =    0.700; RWIGS  =    0.370    wigner-seitz radius (au A)                               
   ENMAX  =  700.000; ENMIN  =  350.000 eV                                                          
   RCLOC  =    0.701    cutoff for local pot                                                        
   LCOR   =        T    correct aug charges                                                         
   LPAW   =        T    paw PP                                                                      
   EAUG   = 1000.000                                                                                
   RMAX   =    0.819    core radius for proj-oper                                                   
   RAUG   =    1.000    factor for augmentation sphere                                              
   RDEP   =    0.817    radius for radial grids                                                     
   RDEPT  =    0.817    core radius for aug-charge                                                  
                                                                                                    
   Atomic configuration                                                                             
    2 entries                                                                                       
     n  l   j            E        occ.                                                              
     1  0  0.50        -6.4927   1.0000                                                             
     2  1  0.50        -3.4015   0.0000                                                             
   Description                                                                                      
     l       E           TYP  RCUT    TYP  RCUT                                                     
     0     -6.4927493     23  0.800                                                                 
     0      6.8029130     23  0.800                                                                 
     1     -6.8029130     23  0.800                                                                 
  local pseudopotential read in
  atomic valenz-charges read in
  non local Contribution for L=            0  read in
    real space projection operators read in
  non local Contribution for L=            0  read in
    real space projection operators read in
  non local Contribution for L=            1  read in
    real space projection operators read in
    PAW grid and wavefunctions read in
 
   number of l-projection  operators is LMAX  =            3
   number of lm-projection operators is LMMAX =            5
 
 POTCAR:    PAW_PBE O_h 06Feb2004                 
   VRHFIN =O: s2p4                                                                                  
   LEXCH  = PE                                                                                      
   EATOM  =   432.3788 eV,   31.7789 Ry                                                             
                                                                                                    
   TITEL  = PAW_PBE O_h 06Feb2004                                                                   
   LULTRA =        F    use ultrasoft PP ?                                                          
   IUNSCR =        1    unscreen: 0-lin 1-nonlin 2-no                                               
   RPACOR =    0.800    partial core radius                                                         
   POMASS =   16.000; ZVAL   =    6.000    mass and valenz                                          
   RCORE  =    1.100    outmost cutoff radius                                                       
   RWIGS  =    1.400; RWIGS  =    0.741    wigner-seitz radius (au A)                               
   ENMAX  =  700.000; ENMIN  =  500.000 eV                                                          
   ICORE  =        2    local potential                                                             
   LCOR   =        T    correct aug charges                                                         
   LPAW   =        T    paw PP                                                                      
   EAUG   =  888.804                                                                                
   DEXC   =    0.000                                                                                
   RMAX   =    1.128    core radius for proj-oper                                                   
   RAUG   =    1.300    factor for augmentation sphere                                              
   RDEP   =    1.125    radius for radial grids                                                     
   RDEPT  =    1.088    core radius for aug-charge                                                  
                                                                                                    
   Atomic configuration                                                                             
    4 entries                                                                                       
     n  l   j            E        occ.                                                              
     1  0  0.50      -514.6923   2.0000                                                             
     2  0  0.50       -23.9615   2.0000                                                             
     2  1  0.50        -9.0305   4.0000                                                             
     3  2  1.50        -9.5241   0.0000                                                             
   Description                                                                                      
     l       E           TYP  RCUT    TYP  RCUT                                                     
     0    -23.9615319     23  1.100                                                                 
     0    -25.3221145     23  1.100                                                                 
     1     -9.0304911     23  1.100                                                                 
     1     -5.4802209     23  1.100                                                                 
     2     -9.5240782      7  1.100                                                                 
  local pseudopotential read in
  partial core-charges read in
  partial kinetic energy density read in
  atomic valenz-charges read in
  non local Contribution for L=            0  read in
    real space projection operators read in
  non local Contribution for L=            0  read in
    real space projection operators read in
  non local Contribution for L=            1  read in
    real space projection operators read in
  non local Contribution for L=            1  read in
    real space projection operators read in
    PAW grid and wavefunctions read in
 
   number of l-projection  operators is LMAX  =            4
   number of lm-projection operators is LMMAX =            8
 
  PAW_PBE H_h 06Feb2004                 :
 energy of atom  1       EATOM=  -12.4884
 kinetic energy error for atom=    0.0001 (will be added to EATOM!!)
  PAW_PBE O_h 06Feb2004                 :
 energy of atom  2       EATOM= -432.3788
 kinetic energy error for atom=    0.0016 (will be added to EATOM!!)
 
 
 POSCAR:  H  O
  positions in cartesian coordinates
  No initial velocities read in
 exchange correlation table for  LEXCH =        8
   RHO(1)=    0.500       N(1)  =     2000
   RHO(2)=  100.500       N(2)  =     4000
 


--------------------------------------------------------------------------------------------------------


 ion  position               nearest neighbor table
   1  0.001  0.018  0.978-   5 0.96
   2  1.000  0.018  0.022-   5 0.96
   3  0.001  0.125  0.978-   6 0.96
   4  0.000  0.127  0.021-   6 0.96
   5  0.000  0.035  0.000-   1 0.96   2 0.96
   6  0.000  0.109  0.000-   4 0.96   3 0.96
 
  LATTYP: Found a simple cubic cell.
 ALAT       =    35.0000000000
  
  Lattice vectors:
  
 A1 = (  35.0000000000,   0.0000000000,   0.0000000000)
 A2 = (   0.0000000000,  35.0000000000,   0.0000000000)
 A3 = (   0.0000000000,   0.0000000000,  35.0000000000)


Analysis of symmetry for initial positions (statically):
=====================================================================
 Subroutine PRICEL returns:
 Original cell was already a primitive cell.
 

 Routine SETGRP: Setting up the symmetry group for a 
 simple cubic supercell.


 Subroutine GETGRP returns: Found  1 space group operations
 (whereof  1 operations were pure point group operations)
 out of a pool of 48 trial point group operations.


The static configuration has the point symmetry C_1 .


Analysis of symmetry for dynamics (positions and initial velocities):
=====================================================================
 Subroutine PRICEL returns:
 Original cell was already a primitive cell.
 

 Routine SETGRP: Setting up the symmetry group for a 
 simple cubic supercell.


 Subroutine GETGRP returns: Found  1 space group operations
 (whereof  1 operations were pure point group operations)
 out of a pool of 48 trial point group operations.


The dynamic configuration has the point symmetry C_1 .


 Subroutine INISYM returns: Found  1 space group operations
 (whereof  1 operations are pure point group operations),
 and found     1 'primitive' translations


----------------------------------------------------------------------------------------

                                     Primitive cell                                     

  volume of cell :   42875.0000

  direct lattice vectors                    reciprocal lattice vectors
    35.000000000  0.000000000  0.000000000     0.028571429  0.000000000  0.000000000
     0.000000000 35.000000000  0.000000000     0.000000000  0.028571429  0.000000000
     0.000000000  0.000000000 35.000000000     0.000000000  0.000000000  0.028571429

  length of vectors
    35.000000000 35.000000000 35.000000000     0.028571429  0.028571429  0.028571429

  position of ions in fractional coordinates (direct lattice)
     0.000503079  0.018298976  0.978247097
     0.999617776  0.018046666  0.021558586
     0.000848682  0.125182213  0.977571084
     0.000390051  0.127236386  0.020841195
     0.000000000  0.035063029  0.000000000
     0.000000000  0.109348743  0.000000000

  ion indices of the primitive-cell ions
   primitive index   ion index
                 1           1
                 2           2
                 3           3
                 4           4
                 5           5
                 6           6

----------------------------------------------------------------------------------------

 
 
 KPOINTS: automatic mesh                          

Automatic generation of k-mesh.
Space group operators:
 irot       det(A)        alpha          n_x          n_y          n_z        tau_x        tau_y        tau_z
    1     1.000000     0.000000     1.000000     0.000000     0.000000     0.000000     0.000000     0.000000
 
 Subroutine IBZKPT returns following result:
 ===========================================
 
 Found      1 irreducible k-points:
 
 Following reciprocal coordinates:
            Coordinates               Weight
  0.000000  0.000000  0.000000      1.000000
 
 Following cartesian coordinates:
            Coordinates               Weight
  0.000000  0.000000  0.000000      1.000000
 


--------------------------------------------------------------------------------------------------------




 Dimension of arrays:
   k-points           NKPTS =      1   k-points in BZ     NKDIM =      1   number of bands    NBANDS=     12
   number of dos      NEDOS =    301   number of ions     NIONS =      6
   non local maximal  LDIM  =      4   non local SUM 2l+1 LMDIM =      8
   total plane-waves  NPLWV = ******
   max r-space proj   IRMAX =      1   max aug-charges    IRDMAX=  23028
   dimension x,y,z NGX =   512 NGY =  512 NGZ =  512
   dimension x,y,z NGXF=  1024 NGYF= 1024 NGZF= 1024
   support grid    NGXF=  1024 NGYF= 1024 NGZF= 1024
   ions per type =               4   2
   NGX,Y,Z   is equivalent  to a cutoff of  24.32, 24.32, 24.32 a.u.
   NGXF,Y,Z  is equivalent  to a cutoff of  48.64, 48.64, 48.64 a.u.

 SYSTEM =  C                                       
 POSCAR =   H  O                                   

 Startparameter for this run:
   NWRITE =      2    write-flag & timer
   PREC   = acc       normal or accurate (medium, high low for compatibility)
   ISTART =      0    job   : 0-new  1-cont  2-samecut
   ICHARG =      2    charge: 1-file 2-atom 10-const
   ISPIN  =      1    spin polarized calculation?
   LNONCOLLINEAR =      F non collinear calculations
   LSORBIT =      F    spin-orbit coupling
   INIWAV =      1    electr: 0-lowe 1-rand  2-diag
   LASPH  =      T    aspherical Exc in radial PAW
   METAGGA=      F    non-selfconsistent MetaGGA calc.

 Electronic Relaxation 1
   ENCUT  = 2000.0 eV 147.00 Ry   12.12 a.u. 127.63127.63127.63*2*pi/ulx,y,z
   ENINI  = 2000.0     initial cutoff
   ENAUG  = 1000.0 eV  augmentation charge cutoff
   NELM   =     60;   NELMIN=  2; NELMDL= -5     # of ELM steps 
   EDIFF  = 0.1E-06   stopping-criterion for ELM
   LREAL  =      F    real-space projection
   NLSPLINE    = F    spline interpolate recip. space projectors
   LCOMPAT=      F    compatible to vasp.4.4
   GGA_COMPAT  = T    GGA compatible to vasp.4.4-vasp.4.6
   LMAXPAW     = -100 max onsite density
   LMAXMIX     =    2 max onsite mixed and CHGCAR
   VOSKOWN=      0    Vosko Wilk Nusair interpolation
   ROPT   =    0.00000   0.00000
 Ionic relaxation
   EDIFFG = 0.1E-05   stopping-criterion for IOM
   NSW    =      0    number of steps for IOM
   NBLOCK =      1;   KBLOCK =      1    inner block; outer block 
   IBRION =     -1    ionic relax: 0-MD 1-quasi-New 2-CG
   NFREE  =      0    steps in history (QN), initial steepest desc. (CG)
   ISIF   =      2    stress and relaxation
   IWAVPR =     10    prediction:  0-non 1-charg 2-wave 3-comb
   ISYM   =      2    0-nonsym 1-usesym 2-fastsym
   LCORR  =      T    Harris-Foulkes like correction to forces

   POTIM  = 0.5000    time-step for ionic-motion
   TEIN   =    0.0    initial temperature
   TEBEG  =    0.0;   TEEND  =   0.0 temperature during run
   SMASS  =  -3.00    Nose mass-parameter (am)
   estimated Nose-frequenzy (Omega)   =  0.10E-29 period in steps = 0.13E+47 mass=  -0.280E-25a.u.
   SCALEE = 1.0000    scale energy and forces
   NPACO  =    256;   APACO  = 16.0  distance and # of slots for P.C.
   PSTRESS=    0.0 pullay stress

  Mass of Ions in am
   POMASS =   1.00 16.00
  Ionic Valenz
   ZVAL   =   1.00  6.00
  Atomic Wigner-Seitz radii
   RWIGS  =  -1.00 -1.00
  virtual crystal weights 
   VCA    =   1.00  1.00
   NELECT =      16.0000    total number of electrons
   NUPDOWN=      -1.0000    fix difference up-down

 DOS related values:
   EMIN   =  10.00;   EMAX   =-10.00  energy-range for DOS
   EFERMI =   0.00
   ISMEAR =     0;   SIGMA  =   0.01  broadening in eV -4-tet -1-fermi 0-gaus

 Electronic relaxation 2 (details)
   IALGO  =     38    algorithm
   LDIAG  =      T    sub-space diagonalisation (order eigenvalues)
   LSUBROT=      F    optimize rotation matrix (better conditioning)
   TURBO    =      0    0=normal 1=particle mesh
   IRESTART =      0    0=no restart 2=restart with 2 vectors
   NREBOOT  =      0    no. of reboots
   NMIN     =      0    reboot dimension
   EREF     =   0.00    reference energy to select bands
   IMIX   =      4    mixing-type and parameters
     AMIX     =   0.40;   BMIX     =  1.00
     AMIX_MAG =   1.60;   BMIX_MAG =  1.00
     AMIN     =   0.10
     WC   =   100.;   INIMIX=   1;  MIXPRE=   1;  MAXMIX= -45

 Intra band minimization:
   WEIMIN = 0.0000     energy-eigenvalue tresh-hold
   EBREAK =  0.21E-08  absolut break condition
   DEPER  =   0.30     relativ break condition  

   TIME   =   0.40     timestep for ELM

  volume/ion in A,a.u.               =    7145.83     48222.46
  Fermi-wavevector in a.u.,A,eV,Ry     =   0.117864  0.222730  0.189010  0.013892
  Thomas-Fermi vector in A             =   0.732055
 
 Write flags
   LWAVE        =      T    write WAVECAR
   LDOWNSAMPLE  =      F    k-point downsampling of WAVECAR
   LCHARG       =      T    write CHGCAR
   LVTOT        =      F    write LOCPOT, total local potential
   LVHAR        =      F    write LOCPOT, Hartree potential only
   LELF         =      F    write electronic localiz. function (ELF)
   LORBIT       =      0    0 simple, 1 ext, 2 COOP (PROOUT), +10 PAW based schemes


 Dipole corrections
   LMONO  =      F    monopole corrections only (constant potential shift)
   LDIPOL =      F    correct potential (dipole corrections)
   IDIPOL =      4    1-x, 2-y, 3-z, 4-all directions 
   EPSILON=  1.0000000 bulk dielectric constant

 Exchange correlation treatment:
   GGA     =    --    GGA type
   LEXCH   =     8    internal setting for exchange type
   VOSKOWN=      0    Vosko Wilk Nusair interpolation
   LHFCALC =     F    Hartree Fock is set to
   LHFONE  =     F    Hartree Fock one center treatment
   AEXX    =    0.0000 exact exchange contribution

 Linear response parameters
   LEPSILON=     F    determine dielectric tensor
   LRPA    =     F    only Hartree local field effects (RPA)
   LNABLA  =     F    use nabla operator in PAW spheres
   LVEL    =     F    velocity operator in full k-point grid
   LINTERFAST=   F  fast interpolation
   KINTER  =     0    interpolate to denser k-point grid
   CSHIFT  =0.1000    complex shift for real part using Kramers Kronig
   OMEGAMAX=  -1.0    maximum frequency
   DEG_THRESHOLD= 0.2000000E-02 threshold for treating states as degnerate
   RTIME   =   -0.100 relaxation time in fs
  (WPLASMAI=    0.000 imaginary part of plasma frequency in eV, 0.658/RTIME)
   DFIELD  = 0.0000000 0.0000000 0.0000000 field for delta impulse in time
 
 Orbital magnetization related:
   ORBITALMAG=     F  switch on orbital magnetization
   LCHIMAG   =     F  perturbation theory with respect to B field
   DQ        =  0.001000  dq finite difference perturbation B field
   LLRAUG    =     F  two centre corrections for induced B field



--------------------------------------------------------------------------------------------------------


 Static calculation
 charge density and potential will be updated during run
 non-spin polarized calculation
 Variant of blocked Davidson
 Davidson routine will perform the subspace rotation
 perform sub-space diagonalisation
    after iterative eigenvector-optimisation
 modified Broyden-mixing scheme, WC =      100.0
 initial mixing is a Kerker type mixing with AMIX =  0.4000 and BMIX =      1.0000
 Hartree-type preconditioning will be used
 using additional bands             4
 reciprocal scheme for non local part
 use partial core corrections
 calculate Harris-corrections to forces 
   (improved forces if not selfconsistent)
 use gradient corrections 
 use of overlap-Matrix (Vanderbilt PP)
 Gauss-broadening in eV      SIGMA  =   0.01


--------------------------------------------------------------------------------------------------------


  energy-cutoff  :     2000.00
  volume of cell :    42875.00
      direct lattice vectors                 reciprocal lattice vectors
    35.000000000  0.000000000  0.000000000     0.028571429  0.000000000  0.000000000
     0.000000000 35.000000000  0.000000000     0.000000000  0.028571429  0.000000000
     0.000000000  0.000000000 35.000000000     0.000000000  0.000000000  0.028571429

  length of vectors
    35.000000000 35.000000000 35.000000000     0.028571429  0.028571429  0.028571429


 
 k-points in units of 2pi/SCALE and weight: automatic mesh                          
   0.00000000  0.00000000  0.00000000       1.000
 
 k-points in reciprocal lattice and weights: automatic mesh                          
   0.00000000  0.00000000  0.00000000       1.000
 
 position of ions in fractional coordinates (direct lattice) 
   0.00050308  0.01829898  0.97824710
   0.99961778  0.01804667  0.02155859
   0.00084868  0.12518221  0.97757108
   0.00039005  0.12723639  0.02084119
   0.00000000  0.03506303  0.00000000
   0.00000000  0.10934874  0.00000000
 
 position of ions in cartesian coordinates  (Angst):
   0.01760775  0.64046416 34.23864840
  34.98662216  0.63163330  0.75455051
   0.02970387  4.38137746 34.21498793
   0.01365177  4.45327352  0.72944182
   0.00000000  1.22720600  0.00000000
   0.00000000  3.82720600  0.00000000
 


--------------------------------------------------------------------------------------------------------


 use parallel FFT for orbitals z direction half grid
 k-point   1 :   0.0000 0.0000 0.0000  plane waves: 4353902

 maximum and minimum number of plane-waves per node :    544247   544233

 maximum number of plane-waves:   4353902
 maximum index in each direction: 
   IXMAX=  127   IYMAX=  127   IZMAX=  127
   IXMIN= -127   IYMIN= -127   IZMIN=    0


 parallel 3D FFT for wavefunctions:
    minimum data exchange during FFTs selected (reduces bandwidth)
 parallel 3D FFT for charge:
    minimum data exchange during FFTs selected (reduces bandwidth)


 total amount of memory used by VASP MPI-rank0  4207116. kBytes
=======================================================================

   base      :      30000. kBytes
   nonl-proj :     121908. kBytes
   fftplans  :    1475802. kBytes
   grid      :    2553282. kBytes
   one-center:          1. kBytes
   wavefun   :      26123. kBytes
 
     INWAV:  cpu time    0.0001: real time    0.0000
 Broyden mixing: mesh for mixing (old mesh)
   NGX =255   NGY =255   NGZ =255
  (NGX  =***   NGY  =***   NGZ  =***)
  gives a total of ****** points

 initial charge density was supplied:
 charge density of overlapping atoms calculated
 number of electron      16.0000000 magnetization 
 keeping initial charge density in first step


--------------------------------------------------------------------------------------------------------


 Maximum index for augmentation-charges           955 (set IRDMAX)


--------------------------------------------------------------------------------------------------------


 First call to EWALD:  gamma=   0.051
 Maximum number of real-space cells 3x 3x 3
 Maximum number of reciprocal cells 3x 3x 3

    FEWALD:  cpu time    0.0011: real time    0.0011


--------------------------------------- Iteration      1(   1)  ---------------------------------------


    POTLOK:  cpu time   27.1975: real time   27.2372
    SETDIJ:  cpu time    0.0519: real time    0.0536
     EDDAV:  cpu time   14.8477: real time   15.4135
       DOS:  cpu time    0.0008: real time    0.0008
    --------------------------------------------
      LOOP:  cpu time   42.0980: real time   42.7052

 eigenvalue-minimisations  :    40
 total energy-change (2. order) : 0.1531319E+03  (-0.3163375E+03)
 number of electron      16.0000000 magnetization 
 augmentation part       16.0000000 magnetization 

 Free energy of the ion-electron system (eV)
  ---------------------------------------------------
  alpha Z        PSCENC =         0.01522463
  Ewald energy   TEWEN  =       548.92902843
  -Hartree energ DENC   =     -1261.92832501
  -exchange      EXHF   =         0.00000000
  -V(xc)+E(xc)   XCENC  =        61.11992367
  PAW double counting   =       697.41634940     -699.85762974
  entropy T*S    EENTRO =        -0.00000000
  eigenvalues    EBANDS =      -107.27032434
  atomic energy  EATOM  =       914.70769713
  Solvation  Ediel_sol  =         0.00000000
  ---------------------------------------------------
  free energy    TOTEN  =       153.13194419 eV

  energy without entropy =      153.13194419  energy(sigma->0) =      153.13194419


--------------------------------------------------------------------------------------------------------




--------------------------------------- Iteration      1(   2)  ---------------------------------------


     EDDAV:  cpu time   14.7937: real time   14.8177
       DOS:  cpu time    0.0056: real time    0.0056
    --------------------------------------------
      LOOP:  cpu time   14.7993: real time   14.8233

 eigenvalue-minimisations  :    40
 total energy-change (2. order) :-0.6739398E+02  (-0.6123044E+02)
 number of electron      16.0000000 magnetization 
 augmentation part       16.0000000 magnetization 

 Free energy of the ion-electron system (eV)
  ---------------------------------------------------
  alpha Z        PSCENC =         0.01522463
  Ewald energy   TEWEN  =       548.92902843
  -Hartree energ DENC   =     -1261.92832501
  -exchange      EXHF   =         0.00000000
  -V(xc)+E(xc)   XCENC  =        61.11992367
  PAW double counting   =       697.41634940     -699.85762974
  entropy T*S    EENTRO =        -0.00000000
  eigenvalues    EBANDS =      -174.66430812
  atomic energy  EATOM  =       914.70769713
  Solvation  Ediel_sol  =         0.00000000
  ---------------------------------------------------
  free energy    TOTEN  =        85.73796040 eV

  energy without entropy =       85.73796040  energy(sigma->0) =       85.73796040


--------------------------------------------------------------------------------------------------------




--------------------------------------- Iteration      1(   3)  ---------------------------------------


     EDDAV:  cpu time   14.8180: real time   14.8420
       DOS:  cpu time    0.0026: real time    0.0026
    --------------------------------------------
      LOOP:  cpu time   14.8206: real time   14.8445

 eigenvalue-minimisations  :    40
 total energy-change (2. order) :-0.7264098E+02  (-0.7244323E+02)
 number of electron      16.0000000 magnetization 
 augmentation part       16.0000000 magnetization 

 Free energy of the ion-electron system (eV)
  ---------------------------------------------------
  alpha Z        PSCENC =         0.01522463
  Ewald energy   TEWEN  =       548.92902843
  -Hartree energ DENC   =     -1261.92832501
  -exchange      EXHF   =         0.00000000
  -V(xc)+E(xc)   XCENC  =        61.11992367
  PAW double counting   =       697.41634940     -699.85762974
  entropy T*S    EENTRO =        -0.00000000
  eigenvalues    EBANDS =      -247.30529277
  atomic energy  EATOM  =       914.70769713
  Solvation  Ediel_sol  =         0.00000000
  ---------------------------------------------------
  free energy    TOTEN  =        13.09697575 eV

  energy without entropy =       13.09697575  energy(sigma->0) =       13.09697575


--------------------------------------------------------------------------------------------------------




--------------------------------------- Iteration      1(   4)  ---------------------------------------


     EDDAV:  cpu time   17.0991: real time   17.1276
       DOS:  cpu time    0.0042: real time    0.0042
    --------------------------------------------
      LOOP:  cpu time   17.1033: real time   17.1318

 eigenvalue-minimisations  :    48
 total energy-change (2. order) :-0.3844930E+02  (-0.3447533E+02)
 number of electron      16.0000000 magnetization 
 augmentation part       16.0000000 magnetization 

 Free energy of the ion-electron system (eV)
  ---------------------------------------------------
  alpha Z        PSCENC =         0.01522463
  Ewald energy   TEWEN  =       548.92902843
  -Hartree energ DENC   =     -1261.92832501
  -exchange      EXHF   =         0.00000000
  -V(xc)+E(xc)   XCENC  =        61.11992367
  PAW double counting   =       697.41634940     -699.85762974
  entropy T*S    EENTRO =        -0.00000000
  eigenvalues    EBANDS =      -285.75459657
  atomic energy  EATOM  =       914.70769713
  Solvation  Ediel_sol  =         0.00000000
  ---------------------------------------------------
  free energy    TOTEN  =       -25.35232804 eV

  energy without entropy =      -25.35232804  energy(sigma->0) =      -25.35232804


--------------------------------------------------------------------------------------------------------




--------------------------------------- Iteration      1(   5)  ---------------------------------------


     EDDAV:  cpu time   11.4352: real time   11.4541
       DOS:  cpu time    0.0084: real time    0.0084
    CHARGE:  cpu time    3.7225: real time    3.7277
    MIXING:  cpu time    0.5878: real time    0.5888
    --------------------------------------------
      LOOP:  cpu time   15.7539: real time   15.7789

 eigenvalue-minimisations  :    28
 total energy-change (2. order) :-0.7186793E+01  (-0.7180477E+01)
 number of electron      16.0000000 magnetization 
 augmentation part        0.2196696 magnetization 

 Broyden mixing:
  rms(total) = 0.20249E+01    rms(broyden)= 0.20249E+01
  rms(prec ) = 0.20461E+01
  weight for this iteration     100.00

 Free energy of the ion-electron system (eV)
  ---------------------------------------------------
  alpha Z        PSCENC =         0.01522463
  Ewald energy   TEWEN  =       548.92902843
  -Hartree energ DENC   =     -1261.92832501
  -exchange      EXHF   =         0.00000000
  -V(xc)+E(xc)   XCENC  =        61.11992367
  PAW double counting   =       697.41634940     -699.85762974
  entropy T*S    EENTRO =        -0.00000000
  eigenvalues    EBANDS =      -292.94138949
  atomic energy  EATOM  =       914.70769713
  Solvation  Ediel_sol  =         0.00000000
  ---------------------------------------------------
  free energy    TOTEN  =       -32.53912096 eV

  energy without entropy =      -32.53912096  energy(sigma->0) =      -32.53912096


--------------------------------------------------------------------------------------------------------




--------------------------------------- Iteration      1(   6)  ---------------------------------------


    POTLOK:  cpu time   27.1345: real time   27.1750
    SETDIJ:  cpu time    0.0540: real time    0.0540
     EDDAV:  cpu time   11.4526: real time   11.4709
       DOS:  cpu time    0.0012: real time    0.0012
    CHARGE:  cpu time    3.5906: real time    3.5971
    MIXING:  cpu time    0.5695: real time    0.5809
    --------------------------------------------
      LOOP:  cpu time   42.8025: real time   42.8792

 eigenvalue-minimisations  :    28
 total energy-change (2. order) : 0.3794653E+01  (-0.1575583E+01)
 number of electron      16.0000000 magnetization 
 augmentation part        0.1307684 magnetization 

 Broyden mixing:
  rms(total) = 0.21923E+01    rms(broyden)= 0.21923E+01
  rms(prec ) = 0.21944E+01
  weight for this iteration     100.00

 eigenvalues of (default mixing * dielectric matrix)
  average eigenvalue GAMMA=   0.2356
  0.2356

 Free energy of the ion-electron system (eV)
  ---------------------------------------------------
  alpha Z        PSCENC =         0.01522463
  Ewald energy   TEWEN  =       548.92902843
  -Hartree energ DENC   =     -1311.62194964
  -exchange      EXHF   =         0.00000000
  -V(xc)+E(xc)   XCENC  =        63.70343697
  PAW double counting   =      1656.64231100    -1659.73265546
  entropy T*S    EENTRO =        -0.00000000
  eigenvalues    EBANDS =      -241.38756069
  atomic energy  EATOM  =       914.70769713
  Solvation  Ediel_sol  =         0.00000000
  ---------------------------------------------------
  free energy    TOTEN  =       -28.74446763 eV

  energy without entropy =      -28.74446763  energy(sigma->0) =      -28.74446763


--------------------------------------------------------------------------------------------------------




--------------------------------------- Iteration      1(   7)  ---------------------------------------


    POTLOK:  cpu time   27.1899: real time   27.2325
    SETDIJ:  cpu time    0.0516: real time    0.0516
     EDDAV:  cpu time   13.7009: real time   13.7228
       DOS:  cpu time    0.0062: real time    0.0062
    CHARGE:  cpu time    3.6596: real time    3.6650
    MIXING:  cpu time    0.7048: real time    0.7058
    --------------------------------------------
      LOOP:  cpu time   45.3131: real time   45.3840

 eigenvalue-minimisations  :    36
 total energy-change (2. order) : 0.4122299E-01  (-0.6925475E-01)
 number of electron      16.0000000 magnetization 
 augmentation part        0.1282592 magnetization 

 Broyden mixing:
  rms(total) = 0.20986E+01    rms(broyden)= 0.20986E+01
  rms(prec ) = 0.21001E+01
  weight for this iteration     100.00

 eigenvalues of (default mixing * dielectric matrix)
  average eigenvalue GAMMA=   0.9692
  0.9692  0.9692

 Free energy of the ion-electron system (eV)
  ---------------------------------------------------
  alpha Z        PSCENC =         0.01522463
  Ewald energy   TEWEN  =       548.92902843
  -Hartree energ DENC   =     -1315.02563467
  -exchange      EXHF   =         0.00000000
  -V(xc)+E(xc)   XCENC  =        63.86523950
  PAW double counting   =      2144.20324066    -2147.28996852
  entropy T*S    EENTRO =        -0.00000000
  eigenvalues    EBANDS =      -238.10807180
  atomic energy  EATOM  =       914.70769713
  Solvation  Ediel_sol  =         0.00000000
  ---------------------------------------------------
  free energy    TOTEN  =       -28.70324464 eV

  energy without entropy =      -28.70324464  energy(sigma->0) =      -28.70324464


--------------------------------------------------------------------------------------------------------




--------------------------------------- Iteration      1(   8)  ---------------------------------------


    POTLOK:  cpu time   27.1448: real time   27.1850
    SETDIJ:  cpu time    0.0539: real time    0.0539
     EDDAV:  cpu time   12.5414: real time   12.5615
       DOS:  cpu time    0.0038: real time    0.0038
    CHARGE:  cpu time    3.6268: real time    3.6321
    MIXING:  cpu time    0.6471: real time    0.6482
    --------------------------------------------
      LOOP:  cpu time   44.0178: real time   44.0844

 eigenvalue-minimisations  :    32
 total energy-change (2. order) : 0.1289444E+00  (-0.1248633E-01)
 number of electron      16.0000000 magnetization 
 augmentation part        0.1355486 magnetization 

 Broyden mixing:
  rms(total) = 0.96076E+00    rms(broyden)= 0.96076E+00
  rms(prec ) = 0.96296E+00
  weight for this iteration     100.00

 eigenvalues of (default mixing * dielectric matrix)
  average eigenvalue GAMMA=   1.3085
  2.1356  0.8949  0.8949

 Free energy of the ion-electron system (eV)
  ---------------------------------------------------
  alpha Z        PSCENC =         0.01522463
  Ewald energy   TEWEN  =       548.92902843
  -Hartree energ DENC   =     -1317.52270876
  -exchange      EXHF   =         0.00000000
  -V(xc)+E(xc)   XCENC  =        63.96941362
  PAW double counting   =      4016.43412685    -4019.45644930
  entropy T*S    EENTRO =        -0.00000000
  eigenvalues    EBANDS =      -235.65063281
  atomic energy  EATOM  =       914.70769713
  Solvation  Ediel_sol  =         0.00000000
  ---------------------------------------------------
  free energy    TOTEN  =       -28.57430021 eV

  energy without entropy =      -28.57430021  energy(sigma->0) =      -28.57430021


--------------------------------------------------------------------------------------------------------




--------------------------------------- Iteration      1(   9)  ---------------------------------------


    POTLOK:  cpu time   27.1900: real time   27.2300
    SETDIJ:  cpu time    0.0564: real time    0.0565
     EDDAV:  cpu time   13.7184: real time   13.7422
       DOS:  cpu time    0.0044: real time    0.0044
    CHARGE:  cpu time    3.6340: real time    3.6391
    MIXING:  cpu time    0.6374: real time    0.6384
    --------------------------------------------
      LOOP:  cpu time   45.2407: real time   45.3106

 eigenvalue-minimisations  :    36
 total energy-change (2. order) : 0.2220301E+00  (-0.1709886E-01)
 number of electron      16.0000000 magnetization 
 augmentation part        0.1292702 magnetization 

 Broyden mixing:
  rms(total) = 0.42041E+00    rms(broyden)= 0.42041E+00
  rms(prec ) = 0.42127E+00
  weight for this iteration     100.00

 eigenvalues of (default mixing * dielectric matrix)
  average eigenvalue GAMMA=   1.3341
  2.1689  1.3330  0.9174  0.9174

 Free energy of the ion-electron system (eV)
  ---------------------------------------------------
  alpha Z        PSCENC =         0.01522463
  Ewald energy   TEWEN  =       548.92902843
  -Hartree energ DENC   =     -1331.22471391
  -exchange      EXHF   =         0.00000000
  -V(xc)+E(xc)   XCENC  =        64.65821869
  PAW double counting   =      7456.43704918    -7459.45635579
  entropy T*S    EENTRO =        -0.00000000
  eigenvalues    EBANDS =      -222.41841845
  atomic energy  EATOM  =       914.70769713
  Solvation  Ediel_sol  =         0.00000000
  ---------------------------------------------------
  free energy    TOTEN  =       -28.35227010 eV

  energy without entropy =      -28.35227010  energy(sigma->0) =      -28.35227010


--------------------------------------------------------------------------------------------------------




--------------------------------------- Iteration      1(  10)  ---------------------------------------


    POTLOK:  cpu time   27.2698: real time   27.3098
    SETDIJ:  cpu time    0.0472: real time    0.0473
     EDDAV:  cpu time   13.7082: real time   13.7300
       DOS:  cpu time    0.0017: real time    0.0017
    CHARGE:  cpu time    3.6090: real time    3.6142
    MIXING:  cpu time    0.7206: real time    0.7217
    --------------------------------------------
      LOOP:  cpu time   45.3565: real time   45.4246

 eigenvalue-minimisations  :    36
 total energy-change (2. order) : 0.2288449E-01  (-0.2613351E-02)
 number of electron      16.0000000 magnetization 
 augmentation part        0.1262799 magnetization 

 Broyden mixing:
  rms(total) = 0.26034E+00    rms(broyden)= 0.26034E+00
  rms(prec ) = 0.26094E+00
  weight for this iteration     100.00

 eigenvalues of (default mixing * dielectric matrix)
  average eigenvalue GAMMA=   1.6044
  2.6334  2.6334  0.9380  0.9380  0.8793

 Free energy of the ion-electron system (eV)
  ---------------------------------------------------
  alpha Z        PSCENC =         0.01522463
  Ewald energy   TEWEN  =       548.92902843
  -Hartree energ DENC   =     -1334.45243318
  -exchange      EXHF   =         0.00000000
  -V(xc)+E(xc)   XCENC  =        64.76853436
  PAW double counting   =      7277.06288234    -7280.07007744
  entropy T*S    EENTRO =        -0.00000000
  eigenvalues    EBANDS =      -219.29024189
  atomic energy  EATOM  =       914.70769713
  Solvation  Ediel_sol  =         0.00000000
  ---------------------------------------------------
  free energy    TOTEN  =       -28.32938561 eV

  energy without entropy =      -28.32938561  energy(sigma->0) =      -28.32938561


--------------------------------------------------------------------------------------------------------




--------------------------------------- Iteration      1(  11)  ---------------------------------------


    POTLOK:  cpu time   27.3306: real time   27.3705
    SETDIJ:  cpu time    0.0542: real time    0.0543
     EDDAV:  cpu time   12.6000: real time   12.6199
       DOS:  cpu time    0.0027: real time    0.0027
    CHARGE:  cpu time    3.6178: real time    3.6230
    MIXING:  cpu time    0.7659: real time    0.7671
    --------------------------------------------
      LOOP:  cpu time   44.3713: real time   44.4375

 eigenvalue-minimisations  :    32
 total energy-change (2. order) : 0.1403537E-01  (-0.3296878E-02)
 number of electron      16.0000000 magnetization 
 augmentation part        0.1225794 magnetization 

 Broyden mixing:
  rms(total) = 0.11514E+00    rms(broyden)= 0.11514E+00
  rms(prec ) = 0.11542E+00
  weight for this iteration     100.00

 eigenvalues of (default mixing * dielectric matrix)
  average eigenvalue GAMMA=   1.6695
  3.8862  2.3145  0.9345  0.9345  1.0376  0.9098

 Free energy of the ion-electron system (eV)
  ---------------------------------------------------
  alpha Z        PSCENC =         0.01522463
  Ewald energy   TEWEN  =       548.92902843
  -Hartree energ DENC   =     -1339.35781900
  -exchange      EXHF   =         0.00000000
  -V(xc)+E(xc)   XCENC  =        64.89830961
  PAW double counting   =      6606.77135937    -6609.75004449
  entropy T*S    EENTRO =        -0.00000000
  eigenvalues    EBANDS =      -214.52910593
  atomic energy  EATOM  =       914.70769713
  Solvation  Ediel_sol  =         0.00000000
  ---------------------------------------------------
  free energy    TOTEN  =       -28.31535024 eV

  energy without entropy =      -28.31535024  energy(sigma->0) =      -28.31535024


--------------------------------------------------------------------------------------------------------




--------------------------------------- Iteration      1(  12)  ---------------------------------------


    POTLOK:  cpu time   27.3093: real time   27.3491
    SETDIJ:  cpu time    0.0530: real time    0.0530
     EDDAV:  cpu time   13.6890: real time   13.7107
       DOS:  cpu time    0.0023: real time    0.0024
    CHARGE:  cpu time    3.6509: real time    3.6569
    MIXING:  cpu time    0.7682: real time    0.7694
    --------------------------------------------
      LOOP:  cpu time   45.4727: real time   45.5415

 eigenvalue-minimisations  :    36
 total energy-change (2. order) :-0.1807535E-02  (-0.4630951E-03)
 number of electron      16.0000000 magnetization 
 augmentation part        0.1219060 magnetization 

 Broyden mixing:
  rms(total) = 0.13569E+00    rms(broyden)= 0.13569E+00
  rms(prec ) = 0.13589E+00
  weight for this iteration     100.00

 eigenvalues of (default mixing * dielectric matrix)
  average eigenvalue GAMMA=   1.5231
  3.6356  2.4567  0.9761  0.9761  0.9214  0.8479  0.8479

 Free energy of the ion-electron system (eV)
  ---------------------------------------------------
  alpha Z        PSCENC =         0.01522463
  Ewald energy   TEWEN  =       548.92902843
  -Hartree energ DENC   =     -1341.25505911
  -exchange      EXHF   =         0.00000000
  -V(xc)+E(xc)   XCENC  =        64.95313303
  PAW double counting   =      6585.65814713    -6588.63435780
  entropy T*S    EENTRO =        -0.00000000
  eigenvalues    EBANDS =      -212.69097122
  atomic energy  EATOM  =       914.70769713
  Solvation  Ediel_sol  =         0.00000000
  ---------------------------------------------------
  free energy    TOTEN  =       -28.31715778 eV

  energy without entropy =      -28.31715778  energy(sigma->0) =      -28.31715778


--------------------------------------------------------------------------------------------------------




--------------------------------------- Iteration      1(  13)  ---------------------------------------


    POTLOK:  cpu time   27.3109: real time   27.3509
    SETDIJ:  cpu time    0.0575: real time    0.0576
     EDDAV:  cpu time   12.5895: real time   12.6095
       DOS:  cpu time    0.0039: real time    0.0039
    CHARGE:  cpu time    3.6985: real time    3.7039
    MIXING:  cpu time    0.7613: real time    0.7624
    --------------------------------------------
      LOOP:  cpu time   44.4215: real time   44.4882

 eigenvalue-minimisations  :    32
 total energy-change (2. order) :-0.2112105E-02  (-0.7223744E-04)
 number of electron      16.0000000 magnetization 
 augmentation part        0.1225366 magnetization 

 Broyden mixing:
  rms(total) = 0.11125E+00    rms(broyden)= 0.11125E+00
  rms(prec ) = 0.11141E+00
  weight for this iteration     100.00

 eigenvalues of (default mixing * dielectric matrix)
  average eigenvalue GAMMA=   1.4928
  2.8080  2.6084  1.2609  1.2609  1.2220  0.9955  0.8935  0.8935

 Free energy of the ion-electron system (eV)
  ---------------------------------------------------
  alpha Z        PSCENC =         0.01522463
  Ewald energy   TEWEN  =       548.92902843
  -Hartree energ DENC   =     -1340.96193663
  -exchange      EXHF   =         0.00000000
  -V(xc)+E(xc)   XCENC  =        64.93284950
  PAW double counting   =      6589.47630186    -6592.45357171
  entropy T*S    EENTRO =        -0.00000000
  eigenvalues    EBANDS =      -212.96486309
  atomic energy  EATOM  =       914.70769713
  Solvation  Ediel_sol  =         0.00000000
  ---------------------------------------------------
  free energy    TOTEN  =       -28.31926988 eV

  energy without entropy =      -28.31926988  energy(sigma->0) =      -28.31926988


--------------------------------------------------------------------------------------------------------




--------------------------------------- Iteration      1(  14)  ---------------------------------------


    POTLOK:  cpu time   27.3099: real time   27.3495
    SETDIJ:  cpu time    0.0551: real time    0.0552
     EDDAV:  cpu time   12.5938: real time   12.6140
       DOS:  cpu time    0.0012: real time    0.0012
    CHARGE:  cpu time    3.6476: real time    3.6529
    MIXING:  cpu time    0.9867: real time    0.9881
    --------------------------------------------
      LOOP:  cpu time   44.5944: real time   44.6608

 eigenvalue-minimisations  :    32
 total energy-change (2. order) :-0.5582013E-02  (-0.1647773E-03)
 number of electron      16.0000000 magnetization 
 augmentation part        0.1232686 magnetization 

 Broyden mixing:
  rms(total) = 0.19419E-01    rms(broyden)= 0.19419E-01
  rms(prec ) = 0.19868E-01
  weight for this iteration     100.00

 eigenvalues of (default mixing * dielectric matrix)
  average eigenvalue GAMMA=   1.6615
  3.3904  3.3904  2.3159  1.0257  1.0257  0.9787  0.9787  0.9239  0.9239

 Free energy of the ion-electron system (eV)
  ---------------------------------------------------
  alpha Z        PSCENC =         0.01522463
  Ewald energy   TEWEN  =       548.92902843
  -Hartree energ DENC   =     -1340.75585815
  -exchange      EXHF   =         0.00000000
  -V(xc)+E(xc)   XCENC  =        64.91129632
  PAW double counting   =      6709.86029161    -6712.84404761
  entropy T*S    EENTRO =        -0.00000000
  eigenvalues    EBANDS =      -213.14848425
  atomic energy  EATOM  =       914.70769713
  Solvation  Ediel_sol  =         0.00000000
  ---------------------------------------------------
  free energy    TOTEN  =       -28.32485189 eV

  energy without entropy =      -28.32485189  energy(sigma->0) =      -28.32485189


--------------------------------------------------------------------------------------------------------




--------------------------------------- Iteration      1(  15)  ---------------------------------------


    POTLOK:  cpu time   27.3472: real time   27.3871
    SETDIJ:  cpu time    0.0545: real time    0.0546
     EDDAV:  cpu time   11.4666: real time   11.4848
       DOS:  cpu time    0.0065: real time    0.0065
    CHARGE:  cpu time    3.7016: real time    3.7069
    MIXING:  cpu time    0.8657: real time    0.8671
    --------------------------------------------
      LOOP:  cpu time   43.4420: real time   43.5070

 eigenvalue-minimisations  :    28
 total energy-change (2. order) :-0.5461843E-02  (-0.1481782E-03)
 number of electron      16.0000000 magnetization 
 augmentation part        0.1237221 magnetization 

 Broyden mixing:
  rms(total) = 0.23946E-01    rms(broyden)= 0.23946E-01
  rms(prec ) = 0.24085E-01
  weight for this iteration     100.00

 eigenvalues of (default mixing * dielectric matrix)
  average eigenvalue GAMMA=   1.7316
  3.3828  3.3828  2.6726  1.5351  1.5351  0.9405  0.9405  0.8983  1.0142  1.0142

 Free energy of the ion-electron system (eV)
  ---------------------------------------------------
  alpha Z        PSCENC =         0.01522463
  Ewald energy   TEWEN  =       548.92902843
  -Hartree energ DENC   =     -1341.20724498
  -exchange      EXHF   =         0.00000000
  -V(xc)+E(xc)   XCENC  =        64.89902551
  PAW double counting   =      6734.36421013    -6737.34801452
  entropy T*S    EENTRO =        -0.00000000
  eigenvalues    EBANDS =      -212.69024007
  atomic energy  EATOM  =       914.70769713
  Solvation  Ediel_sol  =         0.00000000
  ---------------------------------------------------
  free energy    TOTEN  =       -28.33031374 eV

  energy without entropy =      -28.33031374  energy(sigma->0) =      -28.33031374


--------------------------------------------------------------------------------------------------------




--------------------------------------- Iteration      1(  16)  ---------------------------------------


    POTLOK:  cpu time   27.4076: real time   27.4472
    SETDIJ:  cpu time    0.0472: real time    0.0472
     EDDAV:  cpu time   14.8494: real time   14.8732
       DOS:  cpu time    0.0032: real time    0.0032
    CHARGE:  cpu time    3.6977: real time    3.7031
    MIXING:  cpu time    0.8891: real time    0.8905
    --------------------------------------------
      LOOP:  cpu time   46.8942: real time   46.9643

 eigenvalue-minimisations  :    40
 total energy-change (2. order) :-0.2079893E-02  (-0.2340141E-04)
 number of electron      16.0000000 magnetization 
 augmentation part        0.1236005 magnetization 

 Broyden mixing:
  rms(total) = 0.25355E-01    rms(broyden)= 0.25355E-01
  rms(prec ) = 0.25429E-01
  weight for this iteration     100.00

 eigenvalues of (default mixing * dielectric matrix)
  average eigenvalue GAMMA=   1.8666
  5.6104  2.8690  2.8690  2.2443  1.2660  0.9428  0.9428  1.0410  1.0410  0.9348
  0.7717

 Free energy of the ion-electron system (eV)
  ---------------------------------------------------
  alpha Z        PSCENC =         0.01522463
  Ewald energy   TEWEN  =       548.92902843
  -Hartree energ DENC   =     -1341.53599024
  -exchange      EXHF   =         0.00000000
  -V(xc)+E(xc)   XCENC  =        64.90290930
  PAW double counting   =      6750.13454963    -6753.11740008
  entropy T*S    EENTRO =        -0.00000000
  eigenvalues    EBANDS =      -212.36841242
  atomic energy  EATOM  =       914.70769713
  Solvation  Ediel_sol  =         0.00000000
  ---------------------------------------------------
  free energy    TOTEN  =       -28.33239363 eV

  energy without entropy =      -28.33239363  energy(sigma->0) =      -28.33239363


--------------------------------------------------------------------------------------------------------




--------------------------------------- Iteration      1(  17)  ---------------------------------------


    POTLOK:  cpu time   27.3463: real time   27.3869
    SETDIJ:  cpu time    0.0474: real time    0.0474
     EDDAV:  cpu time   13.7258: real time   13.7477
       DOS:  cpu time    0.0063: real time    0.0063
    CHARGE:  cpu time    3.6395: real time    3.6449
    MIXING:  cpu time    0.9877: real time    0.9892
    --------------------------------------------
      LOOP:  cpu time   45.7529: real time   45.8224

 eigenvalue-minimisations  :    36
 total energy-change (2. order) :-0.3233449E-02  (-0.8014475E-04)
 number of electron      16.0000000 magnetization 
 augmentation part        0.1231423 magnetization 

 Broyden mixing:
  rms(total) = 0.32571E-02    rms(broyden)= 0.32571E-02
  rms(prec ) = 0.33345E-02
  weight for this iteration     100.00

 eigenvalues of (default mixing * dielectric matrix)
  average eigenvalue GAMMA=   1.8981
  6.5997  2.9014  2.6101  2.6101  1.0787  1.0787  0.9426  0.9426  1.1070  1.1070
  0.9000  0.9000

 Free energy of the ion-electron system (eV)
  ---------------------------------------------------
  alpha Z        PSCENC =         0.01522463
  Ewald energy   TEWEN  =       548.92902843
  -Hartree energ DENC   =     -1342.14212727
  -exchange      EXHF   =         0.00000000
  -V(xc)+E(xc)   XCENC  =        64.91096466
  PAW double counting   =      6736.66706235    -6739.64709525
  entropy T*S    EENTRO =        -0.00000000
  eigenvalues    EBANDS =      -211.77638175
  atomic energy  EATOM  =       914.70769713
  Solvation  Ediel_sol  =         0.00000000
  ---------------------------------------------------
  free energy    TOTEN  =       -28.33562708 eV

  energy without entropy =      -28.33562708  energy(sigma->0) =      -28.33562708


--------------------------------------------------------------------------------------------------------




--------------------------------------- Iteration      1(  18)  ---------------------------------------


    POTLOK:  cpu time   27.4181: real time   27.4578
    SETDIJ:  cpu time    0.0530: real time    0.0530
     EDDAV:  cpu time   14.8517: real time   14.8764
       DOS:  cpu time    0.0037: real time    0.0037
    CHARGE:  cpu time    3.6988: real time    3.7042
    MIXING:  cpu time    0.9984: real time    1.0000
    --------------------------------------------
      LOOP:  cpu time   47.0236: real time   47.0951

 eigenvalue-minimisations  :    40
 total energy-change (2. order) :-0.7136499E-03  (-0.3398759E-05)
 number of electron      16.0000000 magnetization 
 augmentation part        0.1232041 magnetization 

 Broyden mixing:
  rms(total) = 0.28833E-02    rms(broyden)= 0.28833E-02
  rms(prec ) = 0.29356E-02
  weight for this iteration     100.00

 eigenvalues of (default mixing * dielectric matrix)
  average eigenvalue GAMMA=   1.9389
  6.5982  3.2638  2.5650  2.2707  2.2707  1.2801  1.2801  0.9416  0.9416  1.0341
  1.0341  0.8870  0.8388

 Free energy of the ion-electron system (eV)
  ---------------------------------------------------
  alpha Z        PSCENC =         0.01522463
  Ewald energy   TEWEN  =       548.92902843
  -Hartree energ DENC   =     -1342.14953898
  -exchange      EXHF   =         0.00000000
  -V(xc)+E(xc)   XCENC  =        64.90864992
  PAW double counting   =      6732.37537597    -6735.35540411
  entropy T*S    EENTRO =        -0.00000000
  eigenvalues    EBANDS =      -211.76737372
  atomic energy  EATOM  =       914.70769713
  Solvation  Ediel_sol  =         0.00000000
  ---------------------------------------------------
  free energy    TOTEN  =       -28.33634073 eV

  energy without entropy =      -28.33634073  energy(sigma->0) =      -28.33634073


--------------------------------------------------------------------------------------------------------




--------------------------------------- Iteration      1(  19)  ---------------------------------------


    POTLOK:  cpu time   27.3559: real time   27.3965
    SETDIJ:  cpu time    0.0515: real time    0.0515
     EDDAV:  cpu time   13.7622: real time   13.7841
       DOS:  cpu time    0.0005: real time    0.0005
    CHARGE:  cpu time    3.6870: real time    3.6925
    MIXING:  cpu time    1.0464: real time    1.0514
    --------------------------------------------
      LOOP:  cpu time   45.9035: real time   45.9766

 eigenvalue-minimisations  :    36
 total energy-change (2. order) :-0.1132669E-02  (-0.6101949E-05)
 number of electron      16.0000000 magnetization 
 augmentation part        0.1232467 magnetization 

 Broyden mixing:
  rms(total) = 0.41707E-02    rms(broyden)= 0.41707E-02
  rms(prec ) = 0.41839E-02
  weight for this iteration     100.00

 eigenvalues of (default mixing * dielectric matrix)
  average eigenvalue GAMMA=   2.0625
  7.6952  4.2116  2.7361  2.7361  2.5210  1.1787  1.1787  0.9433  0.9433  1.0495
  1.0495  0.9247  0.9247  0.7830

 Free energy of the ion-electron system (eV)
  ---------------------------------------------------
  alpha Z        PSCENC =         0.01522463
  Ewald energy   TEWEN  =       548.92902843
  -Hartree energ DENC   =     -1342.14091630
  -exchange      EXHF   =         0.00000000
  -V(xc)+E(xc)   XCENC  =        64.90539249
  PAW double counting   =      6721.37028013    -6724.35148427
  entropy T*S    EENTRO =        -0.00000000
  eigenvalues    EBANDS =      -211.77269563
  atomic energy  EATOM  =       914.70769713
  Solvation  Ediel_sol  =         0.00000000
  ---------------------------------------------------
  free energy    TOTEN  =       -28.33747340 eV

  energy without entropy =      -28.33747340  energy(sigma->0) =      -28.33747340


--------------------------------------------------------------------------------------------------------




--------------------------------------- Iteration      1(  20)  ---------------------------------------


    POTLOK:  cpu time   27.3605: real time   27.4007
    SETDIJ:  cpu time    0.0530: real time    0.0530
     EDDAV:  cpu time   14.8827: real time   14.9063
       DOS:  cpu time    0.0042: real time    0.0042
    CHARGE:  cpu time    3.6449: real time    3.6503
    MIXING:  cpu time    1.1773: real time    1.1792
    --------------------------------------------
      LOOP:  cpu time   47.1226: real time   47.1937

 eigenvalue-minimisations  :    40
 total energy-change (2. order) :-0.4990659E-03  (-0.3847434E-05)
 number of electron      16.0000000 magnetization 
 augmentation part        0.1231732 magnetization 

 Broyden mixing:
  rms(total) = 0.20794E-02    rms(broyden)= 0.20794E-02
  rms(prec ) = 0.20872E-02
  weight for this iteration     100.00

 eigenvalues of (default mixing * dielectric matrix)
  average eigenvalue GAMMA=   2.1145
  8.3710  4.8494  2.8119  2.8119  2.0039  1.5556  1.5556  0.9437  0.9437  1.0063
  1.0063  0.8613  0.8613  1.0676  1.0676

 Free energy of the ion-electron system (eV)
  ---------------------------------------------------
  alpha Z        PSCENC =         0.01522463
  Ewald energy   TEWEN  =       548.92902843
  -Hartree energ DENC   =     -1342.19182821
  -exchange      EXHF   =         0.00000000
  -V(xc)+E(xc)   XCENC  =        64.90596377
  PAW double counting   =      6715.78523037    -6718.76606277
  entropy T*S    EENTRO =        -0.00000000
  eigenvalues    EBANDS =      -211.72322582
  atomic energy  EATOM  =       914.70769713
  Solvation  Ediel_sol  =         0.00000000
  ---------------------------------------------------
  free energy    TOTEN  =       -28.33797246 eV

  energy without entropy =      -28.33797246  energy(sigma->0) =      -28.33797246


--------------------------------------------------------------------------------------------------------




--------------------------------------- Iteration      1(  21)  ---------------------------------------


    POTLOK:  cpu time   27.3141: real time   27.3553
    SETDIJ:  cpu time    0.0489: real time    0.0490
     EDDAV:  cpu time   12.5922: real time   12.6124
       DOS:  cpu time    0.0054: real time    0.0054
    CHARGE:  cpu time    3.6667: real time    3.6718
    MIXING:  cpu time    1.1855: real time    1.1874
    --------------------------------------------
      LOOP:  cpu time   44.8127: real time   44.8813

 eigenvalue-minimisations  :    32
 total energy-change (2. order) :-0.2329592E-03  (-0.8116854E-06)
 number of electron      16.0000000 magnetization 
 augmentation part        0.1231768 magnetization 

 Broyden mixing:
  rms(total) = 0.24681E-02    rms(broyden)= 0.24681E-02
  rms(prec ) = 0.24709E-02
  weight for this iteration     100.00

 eigenvalues of (default mixing * dielectric matrix)
  average eigenvalue GAMMA=   2.0655
  8.3315  4.9795  2.4995  2.4995  2.1317  2.1317  1.8457  0.9443  0.9443  1.0214
  1.0214  1.0679  1.0679  0.9108  0.8252  0.8252

 Free energy of the ion-electron system (eV)
  ---------------------------------------------------
  alpha Z        PSCENC =         0.01522463
  Ewald energy   TEWEN  =       548.92902843
  -Hartree energ DENC   =     -1342.19912126
  -exchange      EXHF   =         0.00000000
  -V(xc)+E(xc)   XCENC  =        64.90568289
  PAW double counting   =      6717.78907185    -6720.76935821
  entropy T*S    EENTRO =        -0.00000000
  eigenvalues    EBANDS =      -211.71643089
  atomic energy  EATOM  =       914.70769713
  Solvation  Ediel_sol  =         0.00000000
  ---------------------------------------------------
  free energy    TOTEN  =       -28.33820542 eV

  energy without entropy =      -28.33820542  energy(sigma->0) =      -28.33820542


--------------------------------------------------------------------------------------------------------




--------------------------------------- Iteration      1(  22)  ---------------------------------------


    POTLOK:  cpu time   27.3295: real time   27.3706
    SETDIJ:  cpu time    0.0699: real time    0.0699
     EDDAV:  cpu time   12.5609: real time   12.5811
       DOS:  cpu time    0.0030: real time    0.0030
    CHARGE:  cpu time    3.6395: real time    3.6448
    MIXING:  cpu time    1.4923: real time    1.4944
    --------------------------------------------
      LOOP:  cpu time   45.0951: real time   45.1638

 eigenvalue-minimisations  :    32
 total energy-change (2. order) :-0.7911443E-04  (-0.5707912E-07)
 number of electron      16.0000000 magnetization 
 augmentation part        0.1231851 magnetization 

 Broyden mixing:
  rms(total) = 0.60003E-03    rms(broyden)= 0.60003E-03
  rms(prec ) = 0.60534E-03
  weight for this iteration     100.00

 eigenvalues of (default mixing * dielectric matrix)
  average eigenvalue GAMMA=   2.0863
  8.5469  5.3795  2.8020  2.8020  2.6873  2.0015  1.3353  1.3353  0.9428  0.9428
  1.0598  1.0598  1.0673  0.9069  0.9069  0.9081  0.7823

 Free energy of the ion-electron system (eV)
  ---------------------------------------------------
  alpha Z        PSCENC =         0.01522463
  Ewald energy   TEWEN  =       548.92902843
  -Hartree energ DENC   =     -1342.19413657
  -exchange      EXHF   =         0.00000000
  -V(xc)+E(xc)   XCENC  =        64.90541936
  PAW double counting   =      6722.03816297    -6725.01855328
  entropy T*S    EENTRO =        -0.00000000
  eigenvalues    EBANDS =      -211.72112721
  atomic energy  EATOM  =       914.70769713
  Solvation  Ediel_sol  =         0.00000000
  ---------------------------------------------------
  free energy    TOTEN  =       -28.33828454 eV

  energy without entropy =      -28.33828454  energy(sigma->0) =      -28.33828454


--------------------------------------------------------------------------------------------------------




--------------------------------------- Iteration      1(  23)  ---------------------------------------


    POTLOK:  cpu time   27.2498: real time   27.2906
    SETDIJ:  cpu time    0.0490: real time    0.0490
     EDDAV:  cpu time   12.5848: real time   12.6048
       DOS:  cpu time    0.0035: real time    0.0035
    CHARGE:  cpu time    3.6838: real time    3.6891
    MIXING:  cpu time    1.3009: real time    1.3031
    --------------------------------------------
      LOOP:  cpu time   44.8719: real time   44.9402

 eigenvalue-minimisations  :    32
 total energy-change (2. order) :-0.9082603E-04  (-0.1637766E-06)
 number of electron      16.0000000 magnetization 
 augmentation part        0.1232005 magnetization 

 Broyden mixing:
  rms(total) = 0.32513E-03    rms(broyden)= 0.32513E-03
  rms(prec ) = 0.32859E-03
  weight for this iteration     100.00

 eigenvalues of (default mixing * dielectric matrix)
  average eigenvalue GAMMA=   2.1355
  8.9144  5.9111  3.5264  2.6700  2.6700  2.3191  1.5504  1.5504  0.9441  0.9441
  1.0138  1.0138  1.0075  1.0075  0.9519  0.8490  0.8490  0.7461

 Free energy of the ion-electron system (eV)
  ---------------------------------------------------
  alpha Z        PSCENC =         0.01522463
  Ewald energy   TEWEN  =       548.92902843
  -Hartree energ DENC   =     -1342.18773248
  -exchange      EXHF   =         0.00000000
  -V(xc)+E(xc)   XCENC  =        64.90488664
  PAW double counting   =      6722.31060497    -6725.29107170
  entropy T*S    EENTRO =        -0.00000000
  eigenvalues    EBANDS =      -211.72701298
  atomic energy  EATOM  =       914.70769713
  Solvation  Ediel_sol  =         0.00000000
  ---------------------------------------------------
  free energy    TOTEN  =       -28.33837536 eV

  energy without entropy =      -28.33837536  energy(sigma->0) =      -28.33837536


--------------------------------------------------------------------------------------------------------




--------------------------------------- Iteration      1(  24)  ---------------------------------------


    POTLOK:  cpu time   27.2032: real time   27.2451
    SETDIJ:  cpu time    0.0525: real time    0.0525
     EDDAV:  cpu time   10.3082: real time   10.3250
       DOS:  cpu time    0.0061: real time    0.0061
    CHARGE:  cpu time    3.6992: real time    3.7047
    MIXING:  cpu time    1.4096: real time    1.4118
    --------------------------------------------
      LOOP:  cpu time   42.6789: real time   42.7452

 eigenvalue-minimisations  :    24
 total energy-change (2. order) :-0.4402551E-04  (-0.3873068E-07)
 number of electron      16.0000000 magnetization 
 augmentation part        0.1231986 magnetization 

 Broyden mixing:
  rms(total) = 0.43446E-03    rms(broyden)= 0.43446E-03
  rms(prec ) = 0.43551E-03
  weight for this iteration     100.00

 eigenvalues of (default mixing * dielectric matrix)
  average eigenvalue GAMMA=   2.1696
  9.0805  6.2902  3.9250  2.9831  2.5777  1.9978  1.9978  1.3794  1.3794  0.9427
  0.9427  1.1139  1.1139  1.0047  1.0047  1.0145  0.8603  0.8603  0.7535

 Free energy of the ion-electron system (eV)
  ---------------------------------------------------
  alpha Z        PSCENC =         0.01522463
  Ewald energy   TEWEN  =       548.92902843
  -Hartree energ DENC   =     -1342.18970385
  -exchange      EXHF   =         0.00000000
  -V(xc)+E(xc)   XCENC  =        64.90482918
  PAW double counting   =      6722.46512946    -6725.44562660
  entropy T*S    EENTRO =        -0.00000000
  eigenvalues    EBANDS =      -211.72499778
  atomic energy  EATOM  =       914.70769713
  Solvation  Ediel_sol  =         0.00000000
  ---------------------------------------------------
  free energy    TOTEN  =       -28.33841939 eV

  energy without entropy =      -28.33841939  energy(sigma->0) =      -28.33841939


--------------------------------------------------------------------------------------------------------




--------------------------------------- Iteration      1(  25)  ---------------------------------------


    POTLOK:  cpu time   27.1884: real time   27.2279
    SETDIJ:  cpu time    0.0548: real time    0.0548
     EDDAV:  cpu time   10.3102: real time   10.3266
       DOS:  cpu time    0.0016: real time    0.0016
    CHARGE:  cpu time    3.6703: real time    3.6759
    MIXING:  cpu time    1.6456: real time    1.6481
    --------------------------------------------
      LOOP:  cpu time   42.8711: real time   42.9349

 eigenvalue-minimisations  :    24
 total energy-change (2. order) :-0.1901540E-04  (-0.6875782E-08)
 number of electron      16.0000000 magnetization 
 augmentation part        0.1231973 magnetization 

 Broyden mixing:
  rms(total) = 0.35700E-03    rms(broyden)= 0.35700E-03
  rms(prec ) = 0.35753E-03
  weight for this iteration     100.00

 eigenvalues of (default mixing * dielectric matrix)
  average eigenvalue GAMMA=   2.2378
  9.3077  6.5091  4.6931  2.9355  2.9355  2.4933  2.3463  1.5122  1.5122  0.9431
  0.9431  1.0517  1.0517  1.0362  1.0362  1.0230  0.9052  0.8742  0.8742  0.7720

 Free energy of the ion-electron system (eV)
  ---------------------------------------------------
  alpha Z        PSCENC =         0.01522463
  Ewald energy   TEWEN  =       548.92902843
  -Hartree energ DENC   =     -1342.19219399
  -exchange      EXHF   =         0.00000000
  -V(xc)+E(xc)   XCENC  =        64.90486768
  PAW double counting   =      6722.28394719    -6725.26444881
  entropy T*S    EENTRO =        -0.00000000
  eigenvalues    EBANDS =      -211.72256067
  atomic energy  EATOM  =       914.70769713
  Solvation  Ediel_sol  =         0.00000000
  ---------------------------------------------------
  free energy    TOTEN  =       -28.33843840 eV

  energy without entropy =      -28.33843840  energy(sigma->0) =      -28.33843840


--------------------------------------------------------------------------------------------------------




--------------------------------------- Iteration      1(  26)  ---------------------------------------


    POTLOK:  cpu time   27.1638: real time   27.2032
    SETDIJ:  cpu time    0.0583: real time    0.0583
     EDDAV:  cpu time    8.0706: real time    8.0838
       DOS:  cpu time    0.0026: real time    0.0026
    CHARGE:  cpu time    3.6399: real time    3.6453
    MIXING:  cpu time    1.6789: real time    1.6815
    --------------------------------------------
      LOOP:  cpu time   40.6142: real time   40.6748

 eigenvalue-minimisations  :    16
 total energy-change (2. order) :-0.1330354E-04  (-0.1891725E-07)
 number of electron      16.0000000 magnetization 
 augmentation part        0.1231912 magnetization 

 Broyden mixing:
  rms(total) = 0.17783E-03    rms(broyden)= 0.17783E-03
  rms(prec ) = 0.17812E-03
  weight for this iteration     100.00

 eigenvalues of (default mixing * dielectric matrix)
  average eigenvalue GAMMA=   2.1897
  9.3636  6.5348  4.8566  3.0003  3.0003  2.5396  2.1673  1.5439  1.5439  0.9429
  0.9429  1.0905  1.0905  1.0338  1.0338  1.0196  1.0196  0.8744  0.8744  0.7558
  0.7558

 Free energy of the ion-electron system (eV)
  ---------------------------------------------------
  alpha Z        PSCENC =         0.01522463
  Ewald energy   TEWEN  =       548.92902843
  -Hartree energ DENC   =     -1342.19838973
  -exchange      EXHF   =         0.00000000
  -V(xc)+E(xc)   XCENC  =        64.90508520
  PAW double counting   =      6721.75216720    -6724.73262610
  entropy T*S    EENTRO =        -0.00000000
  eigenvalues    EBANDS =      -211.71663847
  atomic energy  EATOM  =       914.70769713
  Solvation  Ediel_sol  =         0.00000000
  ---------------------------------------------------
  free energy    TOTEN  =       -28.33845171 eV

  energy without entropy =      -28.33845171  energy(sigma->0) =      -28.33845171


--------------------------------------------------------------------------------------------------------




--------------------------------------- Iteration      1(  27)  ---------------------------------------


    POTLOK:  cpu time   27.1790: real time   27.2215
    SETDIJ:  cpu time    0.0579: real time    0.0579
     EDDAV:  cpu time   10.3424: real time   10.3588
       DOS:  cpu time    0.0070: real time    0.0070
    CHARGE:  cpu time    3.7930: real time    3.8001
    MIXING:  cpu time    1.5905: real time    1.5930
    --------------------------------------------
      LOOP:  cpu time   42.9697: real time   43.0383

 eigenvalue-minimisations  :    24
 total energy-change (2. order) :-0.2119263E-05  (-0.5063045E-08)
 number of electron      16.0000000 magnetization 
 augmentation part        0.1231911 magnetization 

 Broyden mixing:
  rms(total) = 0.12969E-03    rms(broyden)= 0.12969E-03
  rms(prec ) = 0.12999E-03
  weight for this iteration     100.00

 eigenvalues of (default mixing * dielectric matrix)
  average eigenvalue GAMMA=   2.1450
  9.4272  6.6359  4.7955  2.9502  2.9502  2.6337  2.2539  1.5238  1.5238  1.2214
  1.2214  0.9433  0.9433  1.0267  1.0267  0.9424  0.9424  0.9247  0.9247  0.8085
  0.8085  0.7619

 Free energy of the ion-electron system (eV)
  ---------------------------------------------------
  alpha Z        PSCENC =         0.01522463
  Ewald energy   TEWEN  =       548.92902843
  -Hartree energ DENC   =     -1342.19822342
  -exchange      EXHF   =         0.00000000
  -V(xc)+E(xc)   XCENC  =        64.90507579
  PAW double counting   =      6721.82435742    -6724.80482317
  entropy T*S    EENTRO =        -0.00000000
  eigenvalues    EBANDS =      -211.71679063
  atomic energy  EATOM  =       914.70769713
  Solvation  Ediel_sol  =         0.00000000
  ---------------------------------------------------
  free energy    TOTEN  =       -28.33845383 eV

  energy without entropy =      -28.33845383  energy(sigma->0) =      -28.33845383


--------------------------------------------------------------------------------------------------------




--------------------------------------- Iteration      1(  28)  ---------------------------------------


    POTLOK:  cpu time   27.1647: real time   27.2042
    SETDIJ:  cpu time    0.0541: real time    0.0541
     EDDAV:  cpu time    8.0577: real time    8.0705
       DOS:  cpu time    0.0016: real time    0.0016
    CHARGE:  cpu time    3.5910: real time    3.5964
    MIXING:  cpu time    1.7602: real time    1.7630
    --------------------------------------------
      LOOP:  cpu time   40.6292: real time   40.6897

 eigenvalue-minimisations  :    16
 total energy-change (2. order) :-0.1768325E-05  (-0.2282260E-08)
 number of electron      16.0000000 magnetization 
 augmentation part        0.1231916 magnetization 

 Broyden mixing:
  rms(total) = 0.51078E-04    rms(broyden)= 0.51078E-04
  rms(prec ) = 0.51420E-04
  weight for this iteration     100.00

 eigenvalues of (default mixing * dielectric matrix)
  average eigenvalue GAMMA=   2.1480
  9.5234  6.6924  4.9350  2.9900  2.9900  2.5697  2.1261  1.6133  1.6133  1.4896
  1.4896  0.9430  0.9430  1.0393  1.0393  1.0577  1.0577  0.9682  0.9682  0.9156
  0.8456  0.7879  0.8061

 Free energy of the ion-electron system (eV)
  ---------------------------------------------------
  alpha Z        PSCENC =         0.01522463
  Ewald energy   TEWEN  =       548.92902843
  -Hartree energ DENC   =     -1342.19730439
  -exchange      EXHF   =         0.00000000
  -V(xc)+E(xc)   XCENC  =        64.90503559
  PAW double counting   =      6721.93497241    -6724.91544100
  entropy T*S    EENTRO =        -0.00000000
  eigenvalues    EBANDS =      -211.71766840
  atomic energy  EATOM  =       914.70769713
  Solvation  Ediel_sol  =         0.00000000
  ---------------------------------------------------
  free energy    TOTEN  =       -28.33845560 eV

  energy without entropy =      -28.33845560  energy(sigma->0) =      -28.33845560


--------------------------------------------------------------------------------------------------------




--------------------------------------- Iteration      1(  29)  ---------------------------------------


    POTLOK:  cpu time   27.1772: real time   27.2189
    SETDIJ:  cpu time    0.0716: real time    0.0716
     EDDAV:  cpu time    8.0702: real time    8.0834
       DOS:  cpu time    0.0028: real time    0.0028
    CHARGE:  cpu time    3.6532: real time    3.6586
    MIXING:  cpu time    2.0034: real time    2.0064
    --------------------------------------------
      LOOP:  cpu time   40.9784: real time   41.0418

 eigenvalue-minimisations  :    16
 total energy-change (2. order) :-0.1523396E-05  (-0.1981604E-08)
 number of electron      16.0000000 magnetization 
 augmentation part        0.1231923 magnetization 

 Broyden mixing:
  rms(total) = 0.38010E-04    rms(broyden)= 0.38010E-04
  rms(prec ) = 0.38161E-04
  weight for this iteration     100.00

 eigenvalues of (default mixing * dielectric matrix)
  average eigenvalue GAMMA=   2.1942
  9.5836  7.0895  5.3238  3.7579  2.5589  2.5589  2.4786  2.4786  1.4716  1.4716
  1.3144  1.3144  0.9429  0.9429  1.0387  1.0387  0.9937  0.9937  1.0060  1.0060
  0.8786  0.8786  0.7699  0.7699

 Free energy of the ion-electron system (eV)
  ---------------------------------------------------
  alpha Z        PSCENC =         0.01522463
  Ewald energy   TEWEN  =       548.92902843
  -Hartree energ DENC   =     -1342.19675648
  -exchange      EXHF   =         0.00000000
  -V(xc)+E(xc)   XCENC  =        64.90500326
  PAW double counting   =      6721.88103625    -6724.86149987
  entropy T*S    EENTRO =        -0.00000000
  eigenvalues    EBANDS =      -211.71819047
  atomic energy  EATOM  =       914.70769713
  Solvation  Ediel_sol  =         0.00000000
  ---------------------------------------------------
  free energy    TOTEN  =       -28.33845712 eV

  energy without entropy =      -28.33845712  energy(sigma->0) =      -28.33845712


--------------------------------------------------------------------------------------------------------




--------------------------------------- Iteration      1(  30)  ---------------------------------------


    POTLOK:  cpu time   27.1389: real time   27.1799
    SETDIJ:  cpu time    0.0590: real time    0.0591
     EDDAV:  cpu time    8.0449: real time    8.0578
       DOS:  cpu time    0.0069: real time    0.0069
    CHARGE:  cpu time    3.7229: real time    3.7283
    MIXING:  cpu time    1.8874: real time    1.8903
    --------------------------------------------
      LOOP:  cpu time   40.8601: real time   40.9222

 eigenvalue-minimisations  :    16
 total energy-change (2. order) :-0.1253544E-05  (-0.2050829E-08)
 number of electron      16.0000000 magnetization 
 augmentation part        0.1231926 magnetization 

 Broyden mixing:
  rms(total) = 0.34405E-04    rms(broyden)= 0.34405E-04
  rms(prec ) = 0.34460E-04
  weight for this iteration     100.00

 eigenvalues of (default mixing * dielectric matrix)
  average eigenvalue GAMMA=   2.1771
  9.6076  7.2616  5.3915  3.9447  2.7737  2.7737  2.4849  2.1994  1.4901  1.4901
  1.4490  1.4490  0.9430  0.9430  1.0461  1.0461  1.1046  1.0246  1.0246  0.9209
  0.8758  0.8758  0.7864  0.7864  0.7337

 Free energy of the ion-electron system (eV)
  ---------------------------------------------------
  alpha Z        PSCENC =         0.01522463
  Ewald energy   TEWEN  =       548.92902843
  -Hartree energ DENC   =     -1342.19657407
  -exchange      EXHF   =         0.00000000
  -V(xc)+E(xc)   XCENC  =        64.90499268
  PAW double counting   =      6721.87822304    -6724.85868681
  entropy T*S    EENTRO =        -0.00000000
  eigenvalues    EBANDS =      -211.71836340
  atomic energy  EATOM  =       914.70769713
  Solvation  Ediel_sol  =         0.00000000
  ---------------------------------------------------
  free energy    TOTEN  =       -28.33845837 eV

  energy without entropy =      -28.33845837  energy(sigma->0) =      -28.33845837


--------------------------------------------------------------------------------------------------------




--------------------------------------- Iteration      1(  31)  ---------------------------------------


    POTLOK:  cpu time   27.3237: real time   27.3636
    SETDIJ:  cpu time    0.0532: real time    0.0532
     EDDAV:  cpu time   10.2968: real time   10.3132
       DOS:  cpu time    0.0025: real time    0.0025
    CHARGE:  cpu time    3.6681: real time    3.6734
    MIXING:  cpu time    1.9667: real time    1.9700
    --------------------------------------------
      LOOP:  cpu time   43.3109: real time   43.3759

 eigenvalue-minimisations  :    24
 total energy-change (2. order) :-0.4545875E-06  (-0.1814987E-08)
 number of electron      16.0000000 magnetization 
 augmentation part        0.1231929 magnetization 

 Broyden mixing:
  rms(total) = 0.17546E-04    rms(broyden)= 0.17546E-04
  rms(prec ) = 0.17593E-04
  weight for this iteration     100.00

 eigenvalues of (default mixing * dielectric matrix)
  average eigenvalue GAMMA=   2.2051
  9.6407  7.5034  5.5861  4.3656  2.8732  2.8732  2.5611  1.9857  1.7943  1.7943
  1.5211  1.5211  0.9429  0.9429  1.0548  1.0548  1.0406  1.0406  1.0204  1.0204
  1.0591  0.9007  0.8675  0.8675  0.7773  0.7226

 Free energy of the ion-electron system (eV)
  ---------------------------------------------------
  alpha Z        PSCENC =         0.01522463
  Ewald energy   TEWEN  =       548.92902843
  -Hartree energ DENC   =     -1342.19620568
  -exchange      EXHF   =         0.00000000
  -V(xc)+E(xc)   XCENC  =        64.90497874
  PAW double counting   =      6721.94100827    -6724.92147736
  entropy T*S    EENTRO =        -0.00000000
  eigenvalues    EBANDS =      -211.71871298
  atomic energy  EATOM  =       914.70769713
  Solvation  Ediel_sol  =         0.00000000
  ---------------------------------------------------
  free energy    TOTEN  =       -28.33845883 eV

  energy without entropy =      -28.33845883  energy(sigma->0) =      -28.33845883


--------------------------------------------------------------------------------------------------------




--------------------------------------- Iteration      1(  32)  ---------------------------------------


    POTLOK:  cpu time   27.1455: real time   27.1851
    SETDIJ:  cpu time    0.0534: real time    0.0534
     EDDAV:  cpu time    8.0514: real time    8.0656
       DOS:  cpu time    0.0034: real time    0.0034
    CHARGE:  cpu time    3.6299: real time    3.6350
    MIXING:  cpu time    2.0883: real time    2.0917
    --------------------------------------------
      LOOP:  cpu time   40.9718: real time   41.0343

 eigenvalue-minimisations  :    16
 total energy-change (2. order) :-0.4041972E-06  (-0.1691022E-08)
 number of electron      16.0000000 magnetization 
 augmentation part        0.1231931 magnetization 

 Broyden mixing:
  rms(total) = 0.11876E-04    rms(broyden)= 0.11876E-04
  rms(prec ) = 0.11927E-04
  weight for this iteration     100.00

 eigenvalues of (default mixing * dielectric matrix)
  average eigenvalue GAMMA=   2.1888
  9.6588  7.7294  5.7816  4.6409  2.9546  2.6445  2.6445  2.1528  2.1528  1.4996
  1.4996  1.3618  1.3618  0.9430  0.9430  1.0455  1.0455  1.1625  0.9971  0.9971
  1.0328  0.8925  0.8925  0.7955  0.7874  0.7874  0.6922

 Free energy of the ion-electron system (eV)
  ---------------------------------------------------
  alpha Z        PSCENC =         0.01522463
  Ewald energy   TEWEN  =       548.92902843
  -Hartree energ DENC   =     -1342.19606618
  -exchange      EXHF   =         0.00000000
  -V(xc)+E(xc)   XCENC  =        64.90497027
  PAW double counting   =      6721.91566016    -6724.89612840
  entropy T*S    EENTRO =        -0.00000000
  eigenvalues    EBANDS =      -211.71884529
  atomic energy  EATOM  =       914.70769713
  Solvation  Ediel_sol  =         0.00000000
  ---------------------------------------------------
  free energy    TOTEN  =       -28.33845923 eV

  energy without entropy =      -28.33845923  energy(sigma->0) =      -28.33845923


--------------------------------------------------------------------------------------------------------




--------------------------------------- Iteration      1(  33)  ---------------------------------------


    POTLOK:  cpu time   27.1946: real time   27.2344
    SETDIJ:  cpu time    0.0629: real time    0.0629
     EDDAV:  cpu time    8.0676: real time    8.0811
       DOS:  cpu time    0.0036: real time    0.0036
    CHARGE:  cpu time    3.7303: real time    3.7355
    MIXING:  cpu time    2.2713: real time    2.2750
    --------------------------------------------
      LOOP:  cpu time   41.3303: real time   41.3926

 eigenvalue-minimisations  :    16
 total energy-change (2. order) :-0.2201832E-06  (-0.1763166E-08)
 number of electron      16.0000000 magnetization 
 augmentation part        0.1231932 magnetization 

 Broyden mixing:
  rms(total) = 0.63214E-05    rms(broyden)= 0.63214E-05
  rms(prec ) = 0.63778E-05
  weight for this iteration     100.00

 eigenvalues of (default mixing * dielectric matrix)
  average eigenvalue GAMMA=   2.1683
  9.6637  7.7883  5.8412  4.6622  3.3137  2.5195  2.5195  2.3331  2.1724  1.5214
  1.5214  1.3963  1.3963  1.3676  1.0399  1.0399  0.9431  0.9431  1.0017  1.0017
  0.8566  0.8566  0.9933  0.8682  0.8682  0.7934  0.7934  0.6966

 Free energy of the ion-electron system (eV)
  ---------------------------------------------------
  alpha Z        PSCENC =         0.01522463
  Ewald energy   TEWEN  =       548.92902843
  -Hartree energ DENC   =     -1342.19613746
  -exchange      EXHF   =         0.00000000
  -V(xc)+E(xc)   XCENC  =        64.90497308
  PAW double counting   =      6721.91860995    -6724.89907723
  entropy T*S    EENTRO =        -0.00000000
  eigenvalues    EBANDS =      -211.71877799
  atomic energy  EATOM  =       914.70769713
  Solvation  Ediel_sol  =         0.00000000
  ---------------------------------------------------
  free energy    TOTEN  =       -28.33845945 eV

  energy without entropy =      -28.33845945  energy(sigma->0) =      -28.33845945


--------------------------------------------------------------------------------------------------------




--------------------------------------- Iteration      1(  34)  ---------------------------------------


    POTLOK:  cpu time   27.0872: real time   27.1267
    SETDIJ:  cpu time    0.0515: real time    0.0515
     EDDAV:  cpu time   10.3136: real time   10.3302
       DOS:  cpu time    0.0018: real time    0.0018
    --------------------------------------------
      LOOP:  cpu time   37.4540: real time   37.5103

 eigenvalue-minimisations  :    24
 total energy-change (2. order) :-0.9350083E-07  (-0.1654978E-08)
 number of electron      16.0000000 magnetization 
 augmentation part        0.1231932 magnetization 

 Free energy of the ion-electron system (eV)
  ---------------------------------------------------
  alpha Z        PSCENC =         0.01522463
  Ewald energy   TEWEN  =       548.92902843
  -Hartree energ DENC   =     -1342.19627972
  -exchange      EXHF   =         0.00000000
  -V(xc)+E(xc)   XCENC  =        64.90497967
  PAW double counting   =      6721.91642607    -6724.89689448
  entropy T*S    EENTRO =        -0.00000000
  eigenvalues    EBANDS =      -211.71864127
  atomic energy  EATOM  =       914.70769713
  Solvation  Ediel_sol  =         0.00000000
  ---------------------------------------------------
  free energy    TOTEN  =       -28.33845955 eV

  energy without entropy =      -28.33845955  energy(sigma->0) =      -28.33845955


--------------------------------------------------------------------------------------------------------




 average (electrostatic) potential at core
  the test charge radii are     0.4325  0.5955
  (the norm of the test charge is              1.0000)
       1 -47.1867       2 -47.1847       3 -47.1869       4 -47.1822       5-119.0600
       6-119.0589
 
 
 
 E-fermi :  -6.5123     XC(G=0):  -0.0325     alpha+bet : -0.0063


 k-point     1 :       0.0000    0.0000    0.0000
  band No.  band energies     occupation 
      1     -24.9088      2.00000
      2     -24.7976      2.00000
      3     -12.6986      2.00000
      4     -12.5970      2.00000
      5      -9.3651      2.00000
      6      -8.0670      2.00000
      7      -6.8500      2.00000
      8      -6.5752      2.00000
      9      -0.8823      0.00000
     10      -0.4021      0.00000
     11      -0.0003      0.00000
     12       0.1006      0.00000


--------------------------------------------------------------------------------------------------------


 soft charge-density along one line, spin component            1
         0         1         2         3         4         5         6         7         8         9
 total charge-density along one line
 
 pseudopotential strength for first ion, spin component:            1
 -2.533  -5.385  -0.006  -0.008   0.000
 -5.385 -11.425  -0.013  -0.018   0.000
 -0.006  -0.013  -1.383   0.011  -0.000
 -0.008  -0.018   0.011  -1.374  -0.000
  0.000   0.000  -0.000  -0.000  -1.391
 total augmentation occupancy for first ion, spin component:            1
  4.239  -0.794   0.223   0.300  -0.007
 -0.794   0.178  -0.044  -0.056   0.001
  0.223  -0.044   0.017   0.013  -0.000
  0.300  -0.056   0.013   0.023  -0.000
 -0.007   0.001  -0.000  -0.000   0.011


------------------------ aborting loop because EDIFF is reached ----------------------------------------



 DIPCOR: dipole corrections for dipol
 direction  1 min pos   478, direction  2 min pos   516, direction  3 min pos   498,
 dipolmoment          -0.014710      0.000730      0.017805 electrons x Angstroem
 Tr[quadrupol]         4.657149

 energy correction for charged system         0.000000 eV
 dipol+quadrupol energy correction            0.000000 eV
 added-field ion interaction          0.000000 eV  (added to PSCEN)

 
  *************** adding dipol energy to TOTEN NOW **************** 
    CHARGE:  cpu time    3.5430: real time    3.5483
    FORLOC:  cpu time    1.1929: real time    1.1944
    FORNL :  cpu time    0.3820: real time    0.3826
    STRESS:  cpu time    5.7595: real time    5.7682
    FORCOR:  cpu time   25.6036: real time   25.6407
    FORHAR:  cpu time    7.7815: real time    7.7936
    MIXING:  cpu time    2.2403: real time    2.2441
    OFIELD:  cpu time    0.0000: real time    0.0000

  FORCE on cell =-STRESS in cart. coord.  units (eV):
  Direction    XX          YY          ZZ          XY          YZ          ZX
  --------------------------------------------------------------------------------------
  Alpha Z     0.01522     0.01522     0.01522
  Ewald     -49.85355   399.76334   199.01868     2.57395     1.60185    -3.98566
  Hartree   332.47982   632.41737   377.29923     0.65571     0.03089    -0.71872
  E(xc)     -74.54606   -73.77520   -73.43479     0.01110     0.00894    -0.01784
  Local    -606.84588 -1310.52222  -821.30060    -2.46926    -0.94773     3.43330
  n-local   -50.65123   -45.40306   -39.46428     0.09131     0.11670    -0.17868
  augment     2.19411     1.24219     0.65780    -0.01602    -0.01210     0.02471
  Kinetic   447.20329   398.42144   358.21192    -0.83526    -0.77629     1.42661
  Fock        0.00000     0.00000     0.00000     0.00000     0.00000     0.00000
  -------------------------------------------------------------------------------------
  Total      -0.00427     2.15909     1.00319     0.01154     0.02225    -0.01629
  in kB      -0.00016     0.08068     0.03749     0.00043     0.00083    -0.00061
  external pressure =        0.04 kB  Pullay stress =        0.00 kB


 VOLUME and BASIS-vectors are now :
 -----------------------------------------------------------------------------
  energy-cutoff  :     2000.00
  volume of cell :    42875.00
      direct lattice vectors                 reciprocal lattice vectors
    35.000000000  0.000000000  0.000000000     0.028571429  0.000000000  0.000000000
     0.000000000 35.000000000  0.000000000     0.000000000  0.028571429  0.000000000
     0.000000000  0.000000000 35.000000000     0.000000000  0.000000000  0.028571429

  length of vectors
    35.000000000 35.000000000 35.000000000     0.028571429  0.028571429  0.028571429


 FORCES acting on ions
    electron-ion (+dipol)            ewald-force                    non-local-force                 convergence-correction
 -----------------------------------------------------------------------------------------------
   -.171E+01 0.613E+02 0.752E+02   0.188E+01 -.666E+02 -.825E+02   -.160E+00 0.498E+01 0.696E+01   0.136E-06 -.419E-05 -.383E-05
   0.135E+01 0.621E+02 -.746E+02   -.148E+01 -.675E+02 0.818E+02   0.124E+00 0.506E+01 -.690E+01   -.137E-07 -.423E-05 0.375E-05
   -.277E+01 -.584E+02 0.774E+02   0.304E+01 0.633E+02 -.849E+02   -.259E+00 -.469E+01 0.716E+01   0.184E-06 0.384E-05 -.379E-05
   -.118E+01 -.649E+02 -.722E+02   0.130E+01 0.706E+02 0.792E+02   -.112E+00 -.534E+01 -.669E+01   0.107E-06 0.416E-05 0.343E-05
   0.330E+00 0.314E+02 -.552E+00   -.518E+00 0.228E+02 0.894E+00   0.188E+00 -.541E+02 -.348E+00   0.529E-06 -.187E-04 -.241E-06
   0.234E+01 -.315E+02 -.291E+01   -.423E+01 -.226E+02 0.543E+01   0.186E+01 0.540E+02 -.248E+01   0.829E-06 0.182E-04 -.738E-06
 -----------------------------------------------------------------------------------------------
   -.164E+01 0.714E-01 0.230E+01   0.000E+00 0.000E+00 0.124E-13   0.164E+01 -.714E-01 -.230E+01   0.177E-05 -.965E-06 -.142E-05
 
 
 POSITION                                       TOTAL-FORCE (eV/Angst)
 -----------------------------------------------------------------------------------
      0.01761      0.64046     34.23865         0.007426     -0.307794     -0.332975
     34.98662      0.63163      0.75455        -0.006782     -0.305127      0.332213
      0.02970      4.38138     34.21499         0.012884      0.282406     -0.346972
      0.01365      4.45327      0.72944         0.006312      0.328793      0.317108
      0.00000      1.22721      0.00000        -0.000939      0.059382     -0.006353
      0.00000      3.82721      0.00000        -0.018901     -0.057660      0.036979
 -----------------------------------------------------------------------------------
    total drift:                               -0.000007      0.000007      0.000005


--------------------------------------------------------------------------------------------------------



  FREE ENERGIE OF THE ION-ELECTRON SYSTEM (eV)
  ---------------------------------------------------
  free  energy   TOTEN  =       -28.33845917 eV

  energy  without entropy=      -28.33845917  energy(sigma->0) =      -28.33845917
 


--------------------------------------------------------------------------------------------------------


    POTLOK:  cpu time   27.2368: real time   27.2795


--------------------------------------------------------------------------------------------------------


 writing wavefunctions
     LOOP+:  cpu time 2343.8551: real time 2353.4075
    4ORBIT:  cpu time    0.0001: real time    0.0012

 total amount of memory used by VASP MPI-rank0  4207116. kBytes
=======================================================================

   base      :      30000. kBytes
   nonl-proj :     121908. kBytes
   fftplans  :    1475802. kBytes
   grid      :    2553282. kBytes
   one-center:          1. kBytes
   wavefun   :      26123. kBytes
 
  
  
 General timing and accounting informations for this job:
 ========================================================
  
                  Total CPU time used (sec):     3324.455
                            User time (sec):     3202.301
                          System time (sec):      122.154
                         Elapsed time (sec):     3351.790
  
                   Maximum memory used (kb):     5241952.
                   Average memory used (kb):           0.
  
                          Minor page faults:     76626918
                          Major page faults:           75
                 Voluntary context switches:        41935
