 vasp.6.1.2 22Jul20 (build Jan  6 2021 09:55:43) gamma-only                      
 executed on             LinuxPGI date 2021.03.02  13:58:06
 running on   32 total cores
 distrk:  each k-point on   32 cores,    1 groups
 distr:  one band on NCORE=   8 cores,    4 groups


--------------------------------------------------------------------------------------------------------


 INCAR:
 POTCAR:    PAW_PBE H_h 06Feb2004                 
 POTCAR:    PAW_PBE O_h 06Feb2004                 
 POTCAR:    PAW_PBE H_h 06Feb2004                 
   VRHFIN =H: ultrasoft test                                                                        
   LEXCH  = PE                                                                                      
   EATOM  =    12.4884 eV,    0.9179 Ry                                                             
                                                                                                    
   TITEL  = PAW_PBE H_h 06Feb2004                                                                   
   LULTRA =        F    use ultrasoft PP ?                                                          
   IUNSCR =        0    unscreen: 0-lin 1-nonlin 2-no                                               
   RPACOR =    0.000    partial core radius                                                         
   POMASS =    1.000; ZVAL   =    1.000    mass and valenz                                          
   RCORE  =    0.800    outmost cutoff radius                                                       
   RWIGS  =    0.700; RWIGS  =    0.370    wigner-seitz radius (au A)                               
   ENMAX  =  700.000; ENMIN  =  350.000 eV                                                          
   RCLOC  =    0.701    cutoff for local pot                                                        
   LCOR   =        T    correct aug charges                                                         
   LPAW   =        T    paw PP                                                                      
   EAUG   = 1000.000                                                                                
   RMAX   =    0.819    core radius for proj-oper                                                   
   RAUG   =    1.000    factor for augmentation sphere                                              
   RDEP   =    0.817    radius for radial grids                                                     
   RDEPT  =    0.817    core radius for aug-charge                                                  
                                                                                                    
   Atomic configuration                                                                             
    2 entries                                                                                       
     n  l   j            E        occ.                                                              
     1  0  0.50        -6.4927   1.0000                                                             
     2  1  0.50        -3.4015   0.0000                                                             
   Description                                                                                      
     l       E           TYP  RCUT    TYP  RCUT                                                     
     0     -6.4927493     23  0.800                                                                 
     0      6.8029130     23  0.800                                                                 
     1     -6.8029130     23  0.800                                                                 
  local pseudopotential read in
  atomic valenz-charges read in
  non local Contribution for L=            0  read in
    real space projection operators read in
  non local Contribution for L=            0  read in
    real space projection operators read in
  non local Contribution for L=            1  read in
    real space projection operators read in
    PAW grid and wavefunctions read in
 
   number of l-projection  operators is LMAX  =            3
   number of lm-projection operators is LMMAX =            5
 
 POTCAR:    PAW_PBE O_h 06Feb2004                 
   VRHFIN =O: s2p4                                                                                  
   LEXCH  = PE                                                                                      
   EATOM  =   432.3788 eV,   31.7789 Ry                                                             
                                                                                                    
   TITEL  = PAW_PBE O_h 06Feb2004                                                                   
   LULTRA =        F    use ultrasoft PP ?                                                          
   IUNSCR =        1    unscreen: 0-lin 1-nonlin 2-no                                               
   RPACOR =    0.800    partial core radius                                                         
   POMASS =   16.000; ZVAL   =    6.000    mass and valenz                                          
   RCORE  =    1.100    outmost cutoff radius                                                       
   RWIGS  =    1.400; RWIGS  =    0.741    wigner-seitz radius (au A)                               
   ENMAX  =  700.000; ENMIN  =  500.000 eV                                                          
   ICORE  =        2    local potential                                                             
   LCOR   =        T    correct aug charges                                                         
   LPAW   =        T    paw PP                                                                      
   EAUG   =  888.804                                                                                
   DEXC   =    0.000                                                                                
   RMAX   =    1.128    core radius for proj-oper                                                   
   RAUG   =    1.300    factor for augmentation sphere                                              
   RDEP   =    1.125    radius for radial grids                                                     
   RDEPT  =    1.088    core radius for aug-charge                                                  
                                                                                                    
   Atomic configuration                                                                             
    4 entries                                                                                       
     n  l   j            E        occ.                                                              
     1  0  0.50      -514.6923   2.0000                                                             
     2  0  0.50       -23.9615   2.0000                                                             
     2  1  0.50        -9.0305   4.0000                                                             
     3  2  1.50        -9.5241   0.0000                                                             
   Description                                                                                      
     l       E           TYP  RCUT    TYP  RCUT                                                     
     0    -23.9615319     23  1.100                                                                 
     0    -25.3221145     23  1.100                                                                 
     1     -9.0304911     23  1.100                                                                 
     1     -5.4802209     23  1.100                                                                 
     2     -9.5240782      7  1.100                                                                 
  local pseudopotential read in
  partial core-charges read in
  partial kinetic energy density read in
  atomic valenz-charges read in
  non local Contribution for L=            0  read in
    real space projection operators read in
  non local Contribution for L=            0  read in
    real space projection operators read in
  non local Contribution for L=            1  read in
    real space projection operators read in
  non local Contribution for L=            1  read in
    real space projection operators read in
    PAW grid and wavefunctions read in
 
   number of l-projection  operators is LMAX  =            4
   number of lm-projection operators is LMMAX =            8
 
  PAW_PBE H_h 06Feb2004                 :
 energy of atom  1       EATOM=  -12.4884
 kinetic energy error for atom=    0.0001 (will be added to EATOM!!)
  PAW_PBE O_h 06Feb2004                 :
 energy of atom  2       EATOM= -432.3788
 kinetic energy error for atom=    0.0016 (will be added to EATOM!!)
 
 
 POSCAR:  H  O
  positions in cartesian coordinates
  No initial velocities read in
 exchange correlation table for  LEXCH =        8
   RHO(1)=    0.500       N(1)  =     2000
   RHO(2)=  100.500       N(2)  =     4000
 


--------------------------------------------------------------------------------------------------------


 ion  position               nearest neighbor table
   1  0.001  0.018  0.978-   5 0.96
   2  1.000  0.018  0.022-   5 0.96
   3  0.001  0.094  0.978-   6 0.96
   4  0.000  0.096  0.021-   6 0.96
   5  0.000  0.035  0.000-   1 0.96   2 0.96   6 1.50
   6  0.000  0.078  0.000-   4 0.96   3 0.96   5 1.50
 
  LATTYP: Found a simple cubic cell.
 ALAT       =    35.0000000000
  
  Lattice vectors:
  
 A1 = (  35.0000000000,   0.0000000000,   0.0000000000)
 A2 = (   0.0000000000,  35.0000000000,   0.0000000000)
 A3 = (   0.0000000000,   0.0000000000,  35.0000000000)


Analysis of symmetry for initial positions (statically):
=====================================================================
 Subroutine PRICEL returns:
 Original cell was already a primitive cell.
 

 Routine SETGRP: Setting up the symmetry group for a 
 simple cubic supercell.


 Subroutine GETGRP returns: Found  1 space group operations
 (whereof  1 operations were pure point group operations)
 out of a pool of 48 trial point group operations.


The static configuration has the point symmetry C_1 .


Analysis of symmetry for dynamics (positions and initial velocities):
=====================================================================
 Subroutine PRICEL returns:
 Original cell was already a primitive cell.
 

 Routine SETGRP: Setting up the symmetry group for a 
 simple cubic supercell.


 Subroutine GETGRP returns: Found  1 space group operations
 (whereof  1 operations were pure point group operations)
 out of a pool of 48 trial point group operations.


The dynamic configuration has the point symmetry C_1 .


 Subroutine INISYM returns: Found  1 space group operations
 (whereof  1 operations are pure point group operations),
 and found     1 'primitive' translations


----------------------------------------------------------------------------------------

                                     Primitive cell                                     

  volume of cell :   42875.0000

  direct lattice vectors                    reciprocal lattice vectors
    35.000000000  0.000000000  0.000000000     0.028571429  0.000000000  0.000000000
     0.000000000 35.000000000  0.000000000     0.000000000  0.028571429  0.000000000
     0.000000000  0.000000000 35.000000000     0.000000000  0.000000000  0.028571429

  length of vectors
    35.000000000 35.000000000 35.000000000     0.028571429  0.028571429  0.028571429

  position of ions in fractional coordinates (direct lattice)
     0.000503079  0.018298976  0.978247097
     0.999617776  0.018046666  0.021558586
     0.000848682  0.093753642  0.977571084
     0.000390051  0.095807815  0.020841195
     0.000000000  0.035063029  0.000000000
     0.000000000  0.077920171  0.000000000

  ion indices of the primitive-cell ions
   primitive index   ion index
                 1           1
                 2           2
                 3           3
                 4           4
                 5           5
                 6           6

----------------------------------------------------------------------------------------

 
 
 KPOINTS: automatic mesh                          

Automatic generation of k-mesh.
Space group operators:
 irot       det(A)        alpha          n_x          n_y          n_z        tau_x        tau_y        tau_z
    1     1.000000     0.000000     1.000000     0.000000     0.000000     0.000000     0.000000     0.000000
 
 Subroutine IBZKPT returns following result:
 ===========================================
 
 Found      1 irreducible k-points:
 
 Following reciprocal coordinates:
            Coordinates               Weight
  0.000000  0.000000  0.000000      1.000000
 
 Following cartesian coordinates:
            Coordinates               Weight
  0.000000  0.000000  0.000000      1.000000
 


--------------------------------------------------------------------------------------------------------




 Dimension of arrays:
   k-points           NKPTS =      1   k-points in BZ     NKDIM =      1   number of bands    NBANDS=     12
   number of dos      NEDOS =    301   number of ions     NIONS =      6
   non local maximal  LDIM  =      4   non local SUM 2l+1 LMDIM =      8
   total plane-waves  NPLWV = ******
   max r-space proj   IRMAX =      1   max aug-charges    IRDMAX=  23028
   dimension x,y,z NGX =   512 NGY =  512 NGZ =  512
   dimension x,y,z NGXF=  1024 NGYF= 1024 NGZF= 1024
   support grid    NGXF=  1024 NGYF= 1024 NGZF= 1024
   ions per type =               4   2
   NGX,Y,Z   is equivalent  to a cutoff of  24.32, 24.32, 24.32 a.u.
   NGXF,Y,Z  is equivalent  to a cutoff of  48.64, 48.64, 48.64 a.u.

 SYSTEM =  C                                       
 POSCAR =   H  O                                   

 Startparameter for this run:
   NWRITE =      2    write-flag & timer
   PREC   = acc       normal or accurate (medium, high low for compatibility)
   ISTART =      0    job   : 0-new  1-cont  2-samecut
   ICHARG =      2    charge: 1-file 2-atom 10-const
   ISPIN  =      1    spin polarized calculation?
   LNONCOLLINEAR =      F non collinear calculations
   LSORBIT =      F    spin-orbit coupling
   INIWAV =      1    electr: 0-lowe 1-rand  2-diag
   LASPH  =      T    aspherical Exc in radial PAW
   METAGGA=      F    non-selfconsistent MetaGGA calc.

 Electronic Relaxation 1
   ENCUT  = 2000.0 eV 147.00 Ry   12.12 a.u. 127.63127.63127.63*2*pi/ulx,y,z
   ENINI  = 2000.0     initial cutoff
   ENAUG  = 1000.0 eV  augmentation charge cutoff
   NELM   =     60;   NELMIN=  2; NELMDL= -5     # of ELM steps 
   EDIFF  = 0.1E-06   stopping-criterion for ELM
   LREAL  =      F    real-space projection
   NLSPLINE    = F    spline interpolate recip. space projectors
   LCOMPAT=      F    compatible to vasp.4.4
   GGA_COMPAT  = T    GGA compatible to vasp.4.4-vasp.4.6
   LMAXPAW     = -100 max onsite density
   LMAXMIX     =    2 max onsite mixed and CHGCAR
   VOSKOWN=      0    Vosko Wilk Nusair interpolation
   ROPT   =    0.00000   0.00000
 Ionic relaxation
   EDIFFG = 0.1E-05   stopping-criterion for IOM
   NSW    =      0    number of steps for IOM
   NBLOCK =      1;   KBLOCK =      1    inner block; outer block 
   IBRION =     -1    ionic relax: 0-MD 1-quasi-New 2-CG
   NFREE  =      0    steps in history (QN), initial steepest desc. (CG)
   ISIF   =      2    stress and relaxation
   IWAVPR =     10    prediction:  0-non 1-charg 2-wave 3-comb
   ISYM   =      2    0-nonsym 1-usesym 2-fastsym
   LCORR  =      T    Harris-Foulkes like correction to forces

   POTIM  = 0.5000    time-step for ionic-motion
   TEIN   =    0.0    initial temperature
   TEBEG  =    0.0;   TEEND  =   0.0 temperature during run
   SMASS  =  -3.00    Nose mass-parameter (am)
   estimated Nose-frequenzy (Omega)   =  0.10E-29 period in steps = 0.13E+47 mass=  -0.280E-25a.u.
   SCALEE = 1.0000    scale energy and forces
   NPACO  =    256;   APACO  = 16.0  distance and # of slots for P.C.
   PSTRESS=    0.0 pullay stress

  Mass of Ions in am
   POMASS =   1.00 16.00
  Ionic Valenz
   ZVAL   =   1.00  6.00
  Atomic Wigner-Seitz radii
   RWIGS  =  -1.00 -1.00
  virtual crystal weights 
   VCA    =   1.00  1.00
   NELECT =      16.0000    total number of electrons
   NUPDOWN=      -1.0000    fix difference up-down

 DOS related values:
   EMIN   =  10.00;   EMAX   =-10.00  energy-range for DOS
   EFERMI =   0.00
   ISMEAR =     0;   SIGMA  =   0.01  broadening in eV -4-tet -1-fermi 0-gaus

 Electronic relaxation 2 (details)
   IALGO  =     38    algorithm
   LDIAG  =      T    sub-space diagonalisation (order eigenvalues)
   LSUBROT=      F    optimize rotation matrix (better conditioning)
   TURBO    =      0    0=normal 1=particle mesh
   IRESTART =      0    0=no restart 2=restart with 2 vectors
   NREBOOT  =      0    no. of reboots
   NMIN     =      0    reboot dimension
   EREF     =   0.00    reference energy to select bands
   IMIX   =      4    mixing-type and parameters
     AMIX     =   0.40;   BMIX     =  1.00
     AMIX_MAG =   1.60;   BMIX_MAG =  1.00
     AMIN     =   0.10
     WC   =   100.;   INIMIX=   1;  MIXPRE=   1;  MAXMIX= -45

 Intra band minimization:
   WEIMIN = 0.0000     energy-eigenvalue tresh-hold
   EBREAK =  0.21E-08  absolut break condition
   DEPER  =   0.30     relativ break condition  

   TIME   =   0.40     timestep for ELM

  volume/ion in A,a.u.               =    7145.83     48222.46
  Fermi-wavevector in a.u.,A,eV,Ry     =   0.117864  0.222730  0.189010  0.013892
  Thomas-Fermi vector in A             =   0.732055
 
 Write flags
   LWAVE        =      T    write WAVECAR
   LDOWNSAMPLE  =      F    k-point downsampling of WAVECAR
   LCHARG       =      T    write CHGCAR
   LVTOT        =      F    write LOCPOT, total local potential
   LVHAR        =      F    write LOCPOT, Hartree potential only
   LELF         =      F    write electronic localiz. function (ELF)
   LORBIT       =      0    0 simple, 1 ext, 2 COOP (PROOUT), +10 PAW based schemes


 Dipole corrections
   LMONO  =      F    monopole corrections only (constant potential shift)
   LDIPOL =      F    correct potential (dipole corrections)
   IDIPOL =      4    1-x, 2-y, 3-z, 4-all directions 
   EPSILON=  1.0000000 bulk dielectric constant

 Exchange correlation treatment:
   GGA     =    --    GGA type
   LEXCH   =     8    internal setting for exchange type
   VOSKOWN=      0    Vosko Wilk Nusair interpolation
   LHFCALC =     F    Hartree Fock is set to
   LHFONE  =     F    Hartree Fock one center treatment
   AEXX    =    0.0000 exact exchange contribution

 Linear response parameters
   LEPSILON=     F    determine dielectric tensor
   LRPA    =     F    only Hartree local field effects (RPA)
   LNABLA  =     F    use nabla operator in PAW spheres
   LVEL    =     F    velocity operator in full k-point grid
   LINTERFAST=   F  fast interpolation
   KINTER  =     0    interpolate to denser k-point grid
   CSHIFT  =0.1000    complex shift for real part using Kramers Kronig
   OMEGAMAX=  -1.0    maximum frequency
   DEG_THRESHOLD= 0.2000000E-02 threshold for treating states as degnerate
   RTIME   =   -0.100 relaxation time in fs
  (WPLASMAI=    0.000 imaginary part of plasma frequency in eV, 0.658/RTIME)
   DFIELD  = 0.0000000 0.0000000 0.0000000 field for delta impulse in time
 
 Orbital magnetization related:
   ORBITALMAG=     F  switch on orbital magnetization
   LCHIMAG   =     F  perturbation theory with respect to B field
   DQ        =  0.001000  dq finite difference perturbation B field
   LLRAUG    =     F  two centre corrections for induced B field



--------------------------------------------------------------------------------------------------------


 Static calculation
 charge density and potential will be updated during run
 non-spin polarized calculation
 Variant of blocked Davidson
 Davidson routine will perform the subspace rotation
 perform sub-space diagonalisation
    after iterative eigenvector-optimisation
 modified Broyden-mixing scheme, WC =      100.0
 initial mixing is a Kerker type mixing with AMIX =  0.4000 and BMIX =      1.0000
 Hartree-type preconditioning will be used
 using additional bands             4
 reciprocal scheme for non local part
 use partial core corrections
 calculate Harris-corrections to forces 
   (improved forces if not selfconsistent)
 use gradient corrections 
 use of overlap-Matrix (Vanderbilt PP)
 Gauss-broadening in eV      SIGMA  =   0.01


--------------------------------------------------------------------------------------------------------


  energy-cutoff  :     2000.00
  volume of cell :    42875.00
      direct lattice vectors                 reciprocal lattice vectors
    35.000000000  0.000000000  0.000000000     0.028571429  0.000000000  0.000000000
     0.000000000 35.000000000  0.000000000     0.000000000  0.028571429  0.000000000
     0.000000000  0.000000000 35.000000000     0.000000000  0.000000000  0.028571429

  length of vectors
    35.000000000 35.000000000 35.000000000     0.028571429  0.028571429  0.028571429


 
 k-points in units of 2pi/SCALE and weight: automatic mesh                          
   0.00000000  0.00000000  0.00000000       1.000
 
 k-points in reciprocal lattice and weights: automatic mesh                          
   0.00000000  0.00000000  0.00000000       1.000
 
 position of ions in fractional coordinates (direct lattice) 
   0.00050308  0.01829898  0.97824710
   0.99961778  0.01804667  0.02155859
   0.00084868  0.09375364  0.97757108
   0.00039005  0.09580781  0.02084119
   0.00000000  0.03506303  0.00000000
   0.00000000  0.07792017  0.00000000
 
 position of ions in cartesian coordinates  (Angst):
   0.01760775  0.64046416 34.23864840
  34.98662216  0.63163330  0.75455051
   0.02970387  3.28137746 34.21498793
   0.01365177  3.35327352  0.72944182
   0.00000000  1.22720600  0.00000000
   0.00000000  2.72720600  0.00000000
 


--------------------------------------------------------------------------------------------------------


 use parallel FFT for orbitals z direction half grid
 k-point   1 :   0.0000 0.0000 0.0000  plane waves: 4353902

 maximum and minimum number of plane-waves per node :    544247   544233

 maximum number of plane-waves:   4353902
 maximum index in each direction: 
   IXMAX=  127   IYMAX=  127   IZMAX=  127
   IXMIN= -127   IYMIN= -127   IZMIN=    0


 parallel 3D FFT for wavefunctions:
    minimum data exchange during FFTs selected (reduces bandwidth)
 parallel 3D FFT for charge:
    minimum data exchange during FFTs selected (reduces bandwidth)


 total amount of memory used by VASP MPI-rank0  4207116. kBytes
=======================================================================

   base      :      30000. kBytes
   nonl-proj :     121908. kBytes
   fftplans  :    1475802. kBytes
   grid      :    2553282. kBytes
   one-center:          1. kBytes
   wavefun   :      26123. kBytes
 
     INWAV:  cpu time    0.0001: real time    0.0000
 Broyden mixing: mesh for mixing (old mesh)
   NGX =255   NGY =255   NGZ =255
  (NGX  =***   NGY  =***   NGZ  =***)
  gives a total of ****** points

 initial charge density was supplied:
 charge density of overlapping atoms calculated
 number of electron      16.0000000 magnetization 
 keeping initial charge density in first step


--------------------------------------------------------------------------------------------------------


 Maximum index for augmentation-charges           959 (set IRDMAX)


--------------------------------------------------------------------------------------------------------


 First call to EWALD:  gamma=   0.051
 Maximum number of real-space cells 3x 3x 3
 Maximum number of reciprocal cells 3x 3x 3

    FEWALD:  cpu time    0.0011: real time    0.0011


--------------------------------------- Iteration      1(   1)  ---------------------------------------


    POTLOK:  cpu time   27.1272: real time   27.1668
    SETDIJ:  cpu time    0.0548: real time    0.0564
     EDDAV:  cpu time   14.8813: real time   14.9323
       DOS:  cpu time    0.0019: real time    0.0019
    --------------------------------------------
      LOOP:  cpu time   42.0653: real time   42.1574

 eigenvalue-minimisations  :    40
 total energy-change (2. order) : 0.1506830E+03  (-0.3277138E+03)
 number of electron      16.0000000 magnetization 
 augmentation part       16.0000000 magnetization 

 Free energy of the ion-electron system (eV)
  ---------------------------------------------------
  alpha Z        PSCENC =         0.01522463
  Ewald energy   TEWEN  =       750.33675549
  -Hartree energ DENC   =     -1455.53565673
  -exchange      EXHF   =         0.00000000
  -V(xc)+E(xc)   XCENC  =        62.35150415
  PAW double counting   =       697.41634940     -699.85762974
  entropy T*S    EENTRO =        -0.00000000
  eigenvalues    EBANDS =      -118.75121180
  atomic energy  EATOM  =       914.70769713
  Solvation  Ediel_sol  =         0.00000000
  ---------------------------------------------------
  free energy    TOTEN  =       150.68303254 eV

  energy without entropy =      150.68303254  energy(sigma->0) =      150.68303254


--------------------------------------------------------------------------------------------------------




--------------------------------------- Iteration      1(   2)  ---------------------------------------


     EDDAV:  cpu time   14.8530: real time   14.8798
       DOS:  cpu time    0.0131: real time    0.0131
    --------------------------------------------
      LOOP:  cpu time   14.8661: real time   14.8928

 eigenvalue-minimisations  :    40
 total energy-change (2. order) :-0.8049174E+02  (-0.8038258E+02)
 number of electron      16.0000000 magnetization 
 augmentation part       16.0000000 magnetization 

 Free energy of the ion-electron system (eV)
  ---------------------------------------------------
  alpha Z        PSCENC =         0.01522463
  Ewald energy   TEWEN  =       750.33675549
  -Hartree energ DENC   =     -1455.53565673
  -exchange      EXHF   =         0.00000000
  -V(xc)+E(xc)   XCENC  =        62.35150415
  PAW double counting   =       697.41634940     -699.85762974
  entropy T*S    EENTRO =        -0.00000000
  eigenvalues    EBANDS =      -199.24295269
  atomic energy  EATOM  =       914.70769713
  Solvation  Ediel_sol  =         0.00000000
  ---------------------------------------------------
  free energy    TOTEN  =        70.19129165 eV

  energy without entropy =       70.19129165  energy(sigma->0) =       70.19129165


--------------------------------------------------------------------------------------------------------




--------------------------------------- Iteration      1(   3)  ---------------------------------------


     EDDAV:  cpu time   14.8323: real time   14.8561
       DOS:  cpu time    0.0030: real time    0.0030
    --------------------------------------------
      LOOP:  cpu time   14.8354: real time   14.8591

 eigenvalue-minimisations  :    40
 total energy-change (2. order) :-0.6313826E+02  (-0.6296823E+02)
 number of electron      16.0000000 magnetization 
 augmentation part       16.0000000 magnetization 

 Free energy of the ion-electron system (eV)
  ---------------------------------------------------
  alpha Z        PSCENC =         0.01522463
  Ewald energy   TEWEN  =       750.33675549
  -Hartree energ DENC   =     -1455.53565673
  -exchange      EXHF   =         0.00000000
  -V(xc)+E(xc)   XCENC  =        62.35150415
  PAW double counting   =       697.41634940     -699.85762974
  entropy T*S    EENTRO =        -0.00000000
  eigenvalues    EBANDS =      -262.38120781
  atomic energy  EATOM  =       914.70769713
  Solvation  Ediel_sol  =         0.00000000
  ---------------------------------------------------
  free energy    TOTEN  =         7.05303652 eV

  energy without entropy =        7.05303652  energy(sigma->0) =        7.05303652


--------------------------------------------------------------------------------------------------------




--------------------------------------- Iteration      1(   4)  ---------------------------------------


     EDDAV:  cpu time   12.5907: real time   12.6111
       DOS:  cpu time    0.0051: real time    0.0051
    --------------------------------------------
      LOOP:  cpu time   12.5959: real time   12.6162

 eigenvalue-minimisations  :    32
 total energy-change (2. order) :-0.1911412E+02  (-0.1442750E+02)
 number of electron      16.0000000 magnetization 
 augmentation part       16.0000000 magnetization 

 Free energy of the ion-electron system (eV)
  ---------------------------------------------------
  alpha Z        PSCENC =         0.01522463
  Ewald energy   TEWEN  =       750.33675549
  -Hartree energ DENC   =     -1455.53565673
  -exchange      EXHF   =         0.00000000
  -V(xc)+E(xc)   XCENC  =        62.35150415
  PAW double counting   =       697.41634940     -699.85762974
  entropy T*S    EENTRO =        -0.00000000
  eigenvalues    EBANDS =      -281.49533187
  atomic energy  EATOM  =       914.70769713
  Solvation  Ediel_sol  =         0.00000000
  ---------------------------------------------------
  free energy    TOTEN  =       -12.06108753 eV

  energy without entropy =      -12.06108753  energy(sigma->0) =      -12.06108753


--------------------------------------------------------------------------------------------------------




--------------------------------------- Iteration      1(   5)  ---------------------------------------


     EDDAV:  cpu time   12.5632: real time   12.5846
       DOS:  cpu time    0.0042: real time    0.0042
    CHARGE:  cpu time    3.7698: real time    3.7749
    MIXING:  cpu time    0.6984: real time    0.6994
    --------------------------------------------
      LOOP:  cpu time   17.0356: real time   17.0632

 eigenvalue-minimisations  :    32
 total energy-change (2. order) :-0.1305813E+02  (-0.1300032E+02)
 number of electron      16.0000000 magnetization 
 augmentation part        0.1449362 magnetization 

 Broyden mixing:
  rms(total) = 0.69153E+01    rms(broyden)= 0.69153E+01
  rms(prec ) = 0.69208E+01
  weight for this iteration     100.00

 Free energy of the ion-electron system (eV)
  ---------------------------------------------------
  alpha Z        PSCENC =         0.01522463
  Ewald energy   TEWEN  =       750.33675549
  -Hartree energ DENC   =     -1455.53565673
  -exchange      EXHF   =         0.00000000
  -V(xc)+E(xc)   XCENC  =        62.35150415
  PAW double counting   =       697.41634940     -699.85762974
  entropy T*S    EENTRO =        -0.00000000
  eigenvalues    EBANDS =      -294.55346521
  atomic energy  EATOM  =       914.70769713
  Solvation  Ediel_sol  =         0.00000000
  ---------------------------------------------------
  free energy    TOTEN  =       -25.11922087 eV

  energy without entropy =      -25.11922087  energy(sigma->0) =      -25.11922087


--------------------------------------------------------------------------------------------------------




--------------------------------------- Iteration      1(   6)  ---------------------------------------


    POTLOK:  cpu time   27.2916: real time   27.3342
    SETDIJ:  cpu time    0.0559: real time    0.0559
     EDDAV:  cpu time   11.4470: real time   11.4653
       DOS:  cpu time    0.0077: real time    0.0077
    CHARGE:  cpu time    3.5824: real time    3.5875
    MIXING:  cpu time    0.6154: real time    0.6235
    --------------------------------------------
      LOOP:  cpu time   43.0000: real time   43.0741

 eigenvalue-minimisations  :    28
 total energy-change (2. order) : 0.2723418E+01  (-0.1564175E+01)
 number of electron      16.0000000 magnetization 
 augmentation part        0.0862222 magnetization 

 Broyden mixing:
  rms(total) = 0.39939E+01    rms(broyden)= 0.39939E+01
  rms(prec ) = 0.39947E+01
  weight for this iteration     100.00

 eigenvalues of (default mixing * dielectric matrix)
  average eigenvalue GAMMA=   1.4322
  1.4322

 Free energy of the ion-electron system (eV)
  ---------------------------------------------------
  alpha Z        PSCENC =         0.01522463
  Ewald energy   TEWEN  =       750.33675549
  -Hartree energ DENC   =     -1505.15667200
  -exchange      EXHF   =         0.00000000
  -V(xc)+E(xc)   XCENC  =        64.63710190
  PAW double counting   =      6173.63261995    -6176.57246529
  entropy T*S    EENTRO =        -0.00000000
  eigenvalues    EBANDS =      -243.99606464
  atomic energy  EATOM  =       914.70769713
  Solvation  Ediel_sol  =         0.00000000
  ---------------------------------------------------
  free energy    TOTEN  =       -22.39580284 eV

  energy without entropy =      -22.39580284  energy(sigma->0) =      -22.39580284


--------------------------------------------------------------------------------------------------------




--------------------------------------- Iteration      1(   7)  ---------------------------------------


    POTLOK:  cpu time   27.3114: real time   27.3506
    SETDIJ:  cpu time    0.0649: real time    0.0649
     EDDAV:  cpu time   17.0635: real time   17.0911
       DOS:  cpu time    0.0048: real time    0.0048
    CHARGE:  cpu time    3.6091: real time    3.6145
    MIXING:  cpu time    0.5764: real time    0.5773
    --------------------------------------------
      LOOP:  cpu time   48.6300: real time   48.7032

 eigenvalue-minimisations  :    48
 total energy-change (2. order) : 0.7003128E-01  (-0.2495270E+00)
 number of electron      16.0000000 magnetization 
 augmentation part        0.0640549 magnetization 

 Broyden mixing:
  rms(total) = 0.16754E+01    rms(broyden)= 0.16754E+01
  rms(prec ) = 0.16762E+01
  weight for this iteration     100.00

 eigenvalues of (default mixing * dielectric matrix)
  average eigenvalue GAMMA=   1.6827
  0.9365  2.4290

 Free energy of the ion-electron system (eV)
  ---------------------------------------------------
  alpha Z        PSCENC =         0.01522463
  Ewald energy   TEWEN  =       750.33675549
  -Hartree energ DENC   =     -1521.55370304
  -exchange      EXHF   =         0.00000000
  -V(xc)+E(xc)   XCENC  =        65.49650265
  PAW double counting   =     15730.15089628   -15733.11472763
  entropy T*S    EENTRO =        -0.00000000
  eigenvalues    EBANDS =      -228.36441707
  atomic energy  EATOM  =       914.70769713
  Solvation  Ediel_sol  =         0.00000000
  ---------------------------------------------------
  free energy    TOTEN  =       -22.32577156 eV

  energy without entropy =      -22.32577156  energy(sigma->0) =      -22.32577156


--------------------------------------------------------------------------------------------------------




--------------------------------------- Iteration      1(   8)  ---------------------------------------


    POTLOK:  cpu time   27.2874: real time   27.3270
    SETDIJ:  cpu time    0.0489: real time    0.0489
     EDDAV:  cpu time   14.8020: real time   14.8258
       DOS:  cpu time    0.0043: real time    0.0043
    CHARGE:  cpu time    3.5809: real time    3.5861
    MIXING:  cpu time    0.6636: real time    0.6646
    --------------------------------------------
      LOOP:  cpu time   46.3870: real time   46.4567

 eigenvalue-minimisations  :    40
 total energy-change (2. order) : 0.8091422E-01  (-0.9896443E-01)
 number of electron      16.0000000 magnetization 
 augmentation part        0.0901215 magnetization 

 Broyden mixing:
  rms(total) = 0.40425E+00    rms(broyden)= 0.40425E+00
  rms(prec ) = 0.40529E+00
  weight for this iteration     100.00

 eigenvalues of (default mixing * dielectric matrix)
  average eigenvalue GAMMA=   1.3276
  2.3087  0.8370  0.8370

 Free energy of the ion-electron system (eV)
  ---------------------------------------------------
  alpha Z        PSCENC =         0.01522463
  Ewald energy   TEWEN  =       750.33675549
  -Hartree energ DENC   =     -1518.86422740
  -exchange      EXHF   =         0.00000000
  -V(xc)+E(xc)   XCENC  =        65.49247813
  PAW double counting   =     25202.90316776   -25205.71387246
  entropy T*S    EENTRO =        -0.00000000
  eigenvalues    EBANDS =      -231.12208061
  atomic energy  EATOM  =       914.70769713
  Solvation  Ediel_sol  =         0.00000000
  ---------------------------------------------------
  free energy    TOTEN  =       -22.24485734 eV

  energy without entropy =      -22.24485734  energy(sigma->0) =      -22.24485734


--------------------------------------------------------------------------------------------------------




--------------------------------------- Iteration      1(   9)  ---------------------------------------


    POTLOK:  cpu time   27.3470: real time   27.3871
    SETDIJ:  cpu time    0.0547: real time    0.0547
     EDDAV:  cpu time   14.8088: real time   14.8326
       DOS:  cpu time    0.0053: real time    0.0053
    CHARGE:  cpu time    3.6127: real time    3.6178
    MIXING:  cpu time    0.6446: real time    0.6456
    --------------------------------------------
      LOOP:  cpu time   46.4731: real time   46.5432

 eigenvalue-minimisations  :    40
 total energy-change (2. order) : 0.2508210E-01  (-0.1670189E-01)
 number of electron      16.0000000 magnetization 
 augmentation part        0.0778691 magnetization 

 Broyden mixing:
  rms(total) = 0.11547E+00    rms(broyden)= 0.11547E+00
  rms(prec ) = 0.11583E+00
  weight for this iteration     100.00

 eigenvalues of (default mixing * dielectric matrix)
  average eigenvalue GAMMA=   1.2493
  2.1741  1.0546  1.0546  0.7141

 Free energy of the ion-electron system (eV)
  ---------------------------------------------------
  alpha Z        PSCENC =         0.01522463
  Ewald energy   TEWEN  =       750.33675549
  -Hartree energ DENC   =     -1522.79741410
  -exchange      EXHF   =         0.00000000
  -V(xc)+E(xc)   XCENC  =        65.64350190
  PAW double counting   =     24097.26015809   -24100.13067588
  entropy T*S    EENTRO =        -0.00000000
  eigenvalues    EBANDS =      -227.25502249
  atomic energy  EATOM  =       914.70769713
  Solvation  Ediel_sol  =         0.00000000
  ---------------------------------------------------
  free energy    TOTEN  =       -22.21977524 eV

  energy without entropy =      -22.21977524  energy(sigma->0) =      -22.21977524


--------------------------------------------------------------------------------------------------------




--------------------------------------- Iteration      1(  10)  ---------------------------------------


    POTLOK:  cpu time   27.4250: real time   27.4639
    SETDIJ:  cpu time    0.0740: real time    0.0741
     EDDAV:  cpu time   17.0818: real time   17.1130
       DOS:  cpu time    0.0040: real time    0.0040
    CHARGE:  cpu time    3.6096: real time    3.6146
    MIXING:  cpu time    0.6907: real time    0.6919
    --------------------------------------------
      LOOP:  cpu time   48.8852: real time   48.9614

 eigenvalue-minimisations  :    48
 total energy-change (2. order) :-0.1437498E-02  (-0.8164350E-03)
 number of electron      16.0000000 magnetization 
 augmentation part        0.0770894 magnetization 

 Broyden mixing:
  rms(total) = 0.57786E-01    rms(broyden)= 0.57786E-01
  rms(prec ) = 0.58349E-01
  weight for this iteration     100.00

 eigenvalues of (default mixing * dielectric matrix)
  average eigenvalue GAMMA=   1.3969
  2.2511  2.2511  0.9724  0.7550  0.7550

 Free energy of the ion-electron system (eV)
  ---------------------------------------------------
  alpha Z        PSCENC =         0.01522463
  Ewald energy   TEWEN  =       750.33675549
  -Hartree energ DENC   =     -1523.36342106
  -exchange      EXHF   =         0.00000000
  -V(xc)+E(xc)   XCENC  =        65.65255424
  PAW double counting   =     23544.57132667   -23547.44609827
  entropy T*S    EENTRO =        -0.00000000
  eigenvalues    EBANDS =      -226.69525155
  atomic energy  EATOM  =       914.70769713
  Solvation  Ediel_sol  =         0.00000000
  ---------------------------------------------------
  free energy    TOTEN  =       -22.22121273 eV

  energy without entropy =      -22.22121273  energy(sigma->0) =      -22.22121273


--------------------------------------------------------------------------------------------------------




--------------------------------------- Iteration      1(  11)  ---------------------------------------


    POTLOK:  cpu time   27.4029: real time   27.4433
    SETDIJ:  cpu time    0.0617: real time    0.0617
     EDDAV:  cpu time   14.8742: real time   14.8988
       DOS:  cpu time    0.0059: real time    0.0059
    CHARGE:  cpu time    3.6147: real time    3.6202
    MIXING:  cpu time    0.7954: real time    0.7967
    --------------------------------------------
      LOOP:  cpu time   46.7549: real time   46.8266

 eigenvalue-minimisations  :    40
 total energy-change (2. order) :-0.2825880E-03  (-0.3741973E-03)
 number of electron      16.0000000 magnetization 
 augmentation part        0.0786291 magnetization 

 Broyden mixing:
  rms(total) = 0.21965E-01    rms(broyden)= 0.21965E-01
  rms(prec ) = 0.22448E-01
  weight for this iteration     100.00

 eigenvalues of (default mixing * dielectric matrix)
  average eigenvalue GAMMA=   1.4561
  2.4895  2.4895  1.1752  1.0104  0.7859  0.7859

 Free energy of the ion-electron system (eV)
  ---------------------------------------------------
  alpha Z        PSCENC =         0.01522463
  Ewald energy   TEWEN  =       750.33675549
  -Hartree energ DENC   =     -1523.68190318
  -exchange      EXHF   =         0.00000000
  -V(xc)+E(xc)   XCENC  =        65.65135601
  PAW double counting   =     23473.73207510   -23476.60208282
  entropy T*S    EENTRO =        -0.00000000
  eigenvalues    EBANDS =      -226.38061768
  atomic energy  EATOM  =       914.70769713
  Solvation  Ediel_sol  =         0.00000000
  ---------------------------------------------------
  free energy    TOTEN  =       -22.22149532 eV

  energy without entropy =      -22.22149532  energy(sigma->0) =      -22.22149532


--------------------------------------------------------------------------------------------------------




--------------------------------------- Iteration      1(  12)  ---------------------------------------


    POTLOK:  cpu time   27.3951: real time   27.4355
    SETDIJ:  cpu time    0.0493: real time    0.0493
     EDDAV:  cpu time   14.8375: real time   14.8619
       DOS:  cpu time    0.0112: real time    0.0112
    CHARGE:  cpu time    3.6753: real time    3.6807
    MIXING:  cpu time    0.7560: real time    0.7572
    --------------------------------------------
      LOOP:  cpu time   46.7244: real time   46.7958

 eigenvalue-minimisations  :    40
 total energy-change (2. order) :-0.1226215E-02  (-0.4363583E-04)
 number of electron      16.0000000 magnetization 
 augmentation part        0.0782629 magnetization 

 Broyden mixing:
  rms(total) = 0.12034E-01    rms(broyden)= 0.12034E-01
  rms(prec ) = 0.12475E-01
  weight for this iteration     100.00

 eigenvalues of (default mixing * dielectric matrix)
  average eigenvalue GAMMA=   1.4247
  2.4871  2.4871  1.5295  1.0566  0.8846  0.7638  0.7638

 Free energy of the ion-electron system (eV)
  ---------------------------------------------------
  alpha Z        PSCENC =         0.01522463
  Ewald energy   TEWEN  =       750.33675549
  -Hartree energ DENC   =     -1524.30565150
  -exchange      EXHF   =         0.00000000
  -V(xc)+E(xc)   XCENC  =        65.66747705
  PAW double counting   =     23396.08173122   -23398.95464784
  entropy T*S    EENTRO =        -0.00000000
  eigenvalues    EBANDS =      -225.77130771
  atomic energy  EATOM  =       914.70769713
  Solvation  Ediel_sol  =         0.00000000
  ---------------------------------------------------
  free energy    TOTEN  =       -22.22272154 eV

  energy without entropy =      -22.22272154  energy(sigma->0) =      -22.22272154


--------------------------------------------------------------------------------------------------------




--------------------------------------- Iteration      1(  13)  ---------------------------------------


    POTLOK:  cpu time   27.4293: real time   27.4690
    SETDIJ:  cpu time    0.0539: real time    0.0539
     EDDAV:  cpu time   14.7533: real time   14.7797
       DOS:  cpu time    0.0102: real time    0.0102
    CHARGE:  cpu time    3.6191: real time    3.6245
    MIXING:  cpu time    0.7790: real time    0.7803
    --------------------------------------------
      LOOP:  cpu time   46.6447: real time   46.7176

 eigenvalue-minimisations  :    40
 total energy-change (2. order) :-0.1348890E-02  (-0.1588174E-04)
 number of electron      16.0000000 magnetization 
 augmentation part        0.0783538 magnetization 

 Broyden mixing:
  rms(total) = 0.59519E-02    rms(broyden)= 0.59519E-02
  rms(prec ) = 0.64650E-02
  weight for this iteration     100.00

 eigenvalues of (default mixing * dielectric matrix)
  average eigenvalue GAMMA=   1.5098
  3.1680  2.1633  2.1633  0.7706  0.7706  1.0308  1.0308  0.9811

 Free energy of the ion-electron system (eV)
  ---------------------------------------------------
  alpha Z        PSCENC =         0.01522463
  Ewald energy   TEWEN  =       750.33675549
  -Hartree energ DENC   =     -1524.57635838
  -exchange      EXHF   =         0.00000000
  -V(xc)+E(xc)   XCENC  =        65.67190014
  PAW double counting   =     23439.76431048   -23442.63676566
  entropy T*S    EENTRO =        -0.00000000
  eigenvalues    EBANDS =      -225.50683426
  atomic energy  EATOM  =       914.70769713
  Solvation  Ediel_sol  =         0.00000000
  ---------------------------------------------------
  free energy    TOTEN  =       -22.22407043 eV

  energy without entropy =      -22.22407043  energy(sigma->0) =      -22.22407043


--------------------------------------------------------------------------------------------------------




--------------------------------------- Iteration      1(  14)  ---------------------------------------


    POTLOK:  cpu time   27.3402: real time   27.3839
    SETDIJ:  cpu time    0.0525: real time    0.0526
     EDDAV:  cpu time   13.7174: real time   13.7398
       DOS:  cpu time    0.0019: real time    0.0019
    CHARGE:  cpu time    3.6369: real time    3.6425
    MIXING:  cpu time    0.8849: real time    0.8864
    --------------------------------------------
      LOOP:  cpu time   45.6340: real time   45.7070

 eigenvalue-minimisations  :    36
 total energy-change (2. order) :-0.1903054E-02  (-0.3048898E-04)
 number of electron      16.0000000 magnetization 
 augmentation part        0.0784025 magnetization 

 Broyden mixing:
  rms(total) = 0.24054E-02    rms(broyden)= 0.24054E-02
  rms(prec ) = 0.28519E-02
  weight for this iteration     100.00

 eigenvalues of (default mixing * dielectric matrix)
  average eigenvalue GAMMA=   1.6699
  3.8262  2.7774  2.0925  1.7858  0.7676  0.7676  1.0706  1.0706  0.8712

 Free energy of the ion-electron system (eV)
  ---------------------------------------------------
  alpha Z        PSCENC =         0.01522463
  Ewald energy   TEWEN  =       750.33675549
  -Hartree energ DENC   =     -1524.94467763
  -exchange      EXHF   =         0.00000000
  -V(xc)+E(xc)   XCENC  =        65.67606134
  PAW double counting   =     23458.33294499   -23461.20523298
  entropy T*S    EENTRO =        -0.00000000
  eigenvalues    EBANDS =      -225.14474645
  atomic energy  EATOM  =       914.70769713
  Solvation  Ediel_sol  =         0.00000000
  ---------------------------------------------------
  free energy    TOTEN  =       -22.22597348 eV

  energy without entropy =      -22.22597348  energy(sigma->0) =      -22.22597348


--------------------------------------------------------------------------------------------------------




--------------------------------------- Iteration      1(  15)  ---------------------------------------


    POTLOK:  cpu time   27.3609: real time   27.4036
    SETDIJ:  cpu time    0.0543: real time    0.0544
     EDDAV:  cpu time   12.5852: real time   12.6059
       DOS:  cpu time    0.0093: real time    0.0094
    CHARGE:  cpu time    3.6621: real time    3.6688
    MIXING:  cpu time    0.9001: real time    0.9016
    --------------------------------------------
      LOOP:  cpu time   44.5720: real time   44.6436

 eigenvalue-minimisations  :    32
 total energy-change (2. order) :-0.1889393E-02  (-0.3114911E-04)
 number of electron      16.0000000 magnetization 
 augmentation part        0.0784691 magnetization 

 Broyden mixing:
  rms(total) = 0.20307E-02    rms(broyden)= 0.20307E-02
  rms(prec ) = 0.21891E-02
  weight for this iteration     100.00

 eigenvalues of (default mixing * dielectric matrix)
  average eigenvalue GAMMA=   1.6465
  4.1681  2.6123  2.1619  2.1619  1.1923  0.9886  0.7715  0.7715  0.8186  0.8186

 Free energy of the ion-electron system (eV)
  ---------------------------------------------------
  alpha Z        PSCENC =         0.01522463
  Ewald energy   TEWEN  =       750.33675549
  -Hartree energ DENC   =     -1525.13469277
  -exchange      EXHF   =         0.00000000
  -V(xc)+E(xc)   XCENC  =        65.67353582
  PAW double counting   =     23448.07016090   -23450.94196153
  entropy T*S    EENTRO =        -0.00000000
  eigenvalues    EBANDS =      -224.95458254
  atomic energy  EATOM  =       914.70769713
  Solvation  Ediel_sol  =         0.00000000
  ---------------------------------------------------
  free energy    TOTEN  =       -22.22786287 eV

  energy without entropy =      -22.22786287  energy(sigma->0) =      -22.22786287


--------------------------------------------------------------------------------------------------------




--------------------------------------- Iteration      1(  16)  ---------------------------------------


    POTLOK:  cpu time   27.3833: real time   27.4235
    SETDIJ:  cpu time    0.0540: real time    0.0541
     EDDAV:  cpu time   16.0095: real time   16.0359
       DOS:  cpu time    0.0012: real time    0.0012
    CHARGE:  cpu time    3.5469: real time    3.5526
    MIXING:  cpu time    0.9625: real time    0.9640
    --------------------------------------------
      LOOP:  cpu time   47.9575: real time   48.0312

 eigenvalue-minimisations  :    44
 total energy-change (2. order) :-0.6920533E-03  (-0.5763545E-05)
 number of electron      16.0000000 magnetization 
 augmentation part        0.0784437 magnetization 

 Broyden mixing:
  rms(total) = 0.43053E-02    rms(broyden)= 0.43053E-02
  rms(prec ) = 0.43479E-02
  weight for this iteration     100.00

 eigenvalues of (default mixing * dielectric matrix)
  average eigenvalue GAMMA=   1.6385
  4.7608  2.5514  2.0728  1.7151  1.7151  1.0498  1.0498  0.9256  0.7708  0.7708
  0.6409

 Free energy of the ion-electron system (eV)
  ---------------------------------------------------
  alpha Z        PSCENC =         0.01522463
  Ewald energy   TEWEN  =       750.33675549
  -Hartree energ DENC   =     -1525.19896140
  -exchange      EXHF   =         0.00000000
  -V(xc)+E(xc)   XCENC  =        65.67385044
  PAW double counting   =     23450.81157794   -23453.68349537
  entropy T*S    EENTRO =        -0.00000000
  eigenvalues    EBANDS =      -224.89120378
  atomic energy  EATOM  =       914.70769713
  Solvation  Ediel_sol  =         0.00000000
  ---------------------------------------------------
  free energy    TOTEN  =       -22.22855493 eV

  energy without entropy =      -22.22855493  energy(sigma->0) =      -22.22855493


--------------------------------------------------------------------------------------------------------




--------------------------------------- Iteration      1(  17)  ---------------------------------------


    POTLOK:  cpu time   27.3868: real time   27.4266
    SETDIJ:  cpu time    0.0490: real time    0.0490
     EDDAV:  cpu time   17.1039: real time   17.1315
       DOS:  cpu time    0.0006: real time    0.0006
    CHARGE:  cpu time    3.6647: real time    3.6700
    MIXING:  cpu time    1.0283: real time    1.0299
    --------------------------------------------
      LOOP:  cpu time   49.2333: real time   49.3078

 eigenvalue-minimisations  :    48
 total energy-change (2. order) :-0.3133029E-03  (-0.9301636E-06)
 number of electron      16.0000000 magnetization 
 augmentation part        0.0784300 magnetization 

 Broyden mixing:
  rms(total) = 0.22398E-02    rms(broyden)= 0.22398E-02
  rms(prec ) = 0.22974E-02
  weight for this iteration     100.00

 eigenvalues of (default mixing * dielectric matrix)
  average eigenvalue GAMMA=   1.8760
  6.1350  3.5589  2.3414  2.3414  1.8636  0.7687  0.7687  1.1050  1.0324  1.0269
  0.8928  0.6772

 Free energy of the ion-electron system (eV)
  ---------------------------------------------------
  alpha Z        PSCENC =         0.01522463
  Ewald energy   TEWEN  =       750.33675549
  -Hartree energ DENC   =     -1525.22867008
  -exchange      EXHF   =         0.00000000
  -V(xc)+E(xc)   XCENC  =        65.67392169
  PAW double counting   =     23441.41563903   -23444.28764700
  entropy T*S    EENTRO =        -0.00000000
  eigenvalues    EBANDS =      -224.86178912
  atomic energy  EATOM  =       914.70769713
  Solvation  Ediel_sol  =         0.00000000
  ---------------------------------------------------
  free energy    TOTEN  =       -22.22886823 eV

  energy without entropy =      -22.22886823  energy(sigma->0) =      -22.22886823


--------------------------------------------------------------------------------------------------------




--------------------------------------- Iteration      1(  18)  ---------------------------------------


    POTLOK:  cpu time   27.3098: real time   27.3497
    SETDIJ:  cpu time    0.0807: real time    0.0807
     EDDAV:  cpu time   12.5676: real time   12.5906
       DOS:  cpu time    0.0092: real time    0.0092
    CHARGE:  cpu time    3.6919: real time    3.6974
    MIXING:  cpu time    1.2216: real time    1.2234
    --------------------------------------------
      LOOP:  cpu time   44.8808: real time   44.9510

 eigenvalue-minimisations  :    32
 total energy-change (2. order) :-0.1011689E-02  (-0.1240461E-04)
 number of electron      16.0000000 magnetization 
 augmentation part        0.0784645 magnetization 

 Broyden mixing:
  rms(total) = 0.99689E-03    rms(broyden)= 0.99689E-03
  rms(prec ) = 0.10191E-02
  weight for this iteration     100.00

 eigenvalues of (default mixing * dielectric matrix)
  average eigenvalue GAMMA=   1.8601
  6.7711  3.5258  2.5137  2.1872  1.6257  1.2729  1.2729  0.7683  0.7683  1.0566
  0.9697  0.8469  0.6024

 Free energy of the ion-electron system (eV)
  ---------------------------------------------------
  alpha Z        PSCENC =         0.01522463
  Ewald energy   TEWEN  =       750.33675549
  -Hartree energ DENC   =     -1525.26650256
  -exchange      EXHF   =         0.00000000
  -V(xc)+E(xc)   XCENC  =        65.67230403
  PAW double counting   =     23431.22814965   -23434.10012736
  entropy T*S    EENTRO =        -0.00000000
  eigenvalues    EBANDS =      -224.82338094
  atomic energy  EATOM  =       914.70769713
  Solvation  Ediel_sol  =         0.00000000
  ---------------------------------------------------
  free energy    TOTEN  =       -22.22987992 eV

  energy without entropy =      -22.22987992  energy(sigma->0) =      -22.22987992


--------------------------------------------------------------------------------------------------------




--------------------------------------- Iteration      1(  19)  ---------------------------------------


    POTLOK:  cpu time   27.2916: real time   27.3313
    SETDIJ:  cpu time    0.0763: real time    0.0764
     EDDAV:  cpu time   17.2043: real time   17.2322
       DOS:  cpu time    0.0044: real time    0.0044
    CHARGE:  cpu time    3.5188: real time    3.5240
    MIXING:  cpu time    1.2318: real time    1.2337
    --------------------------------------------
      LOOP:  cpu time   49.3272: real time   49.4020

 eigenvalue-minimisations  :    48
 total energy-change (2. order) :-0.1481184E-03  (-0.1092129E-05)
 number of electron      16.0000000 magnetization 
 augmentation part        0.0784421 magnetization 

 Broyden mixing:
  rms(total) = 0.15237E-02    rms(broyden)= 0.15237E-02
  rms(prec ) = 0.15340E-02
  weight for this iteration     100.00

 eigenvalues of (default mixing * dielectric matrix)
  average eigenvalue GAMMA=   1.9825
  7.6952  4.1893  2.4835  2.4835  2.2257  1.5127  1.1123  1.1123  0.7692  0.7692
  0.9732  0.8637  0.8637  0.7021

 Free energy of the ion-electron system (eV)
  ---------------------------------------------------
  alpha Z        PSCENC =         0.01522463
  Ewald energy   TEWEN  =       750.33675549
  -Hartree energ DENC   =     -1525.27729777
  -exchange      EXHF   =         0.00000000
  -V(xc)+E(xc)   XCENC  =        65.67245597
  PAW double counting   =     23431.97540200   -23434.84747033
  entropy T*S    EENTRO =        -0.00000000
  eigenvalues    EBANDS =      -224.81279515
  atomic energy  EATOM  =       914.70769713
  Solvation  Ediel_sol  =         0.00000000
  ---------------------------------------------------
  free energy    TOTEN  =       -22.23002804 eV

  energy without entropy =      -22.23002804  energy(sigma->0) =      -22.23002804


--------------------------------------------------------------------------------------------------------




--------------------------------------- Iteration      1(  20)  ---------------------------------------


    POTLOK:  cpu time   27.3102: real time   27.3497
    SETDIJ:  cpu time    0.0475: real time    0.0476
     EDDAV:  cpu time   13.7057: real time   13.7274
       DOS:  cpu time    0.0061: real time    0.0061
    CHARGE:  cpu time    3.6045: real time    3.6098
    MIXING:  cpu time    1.2432: real time    1.2450
    --------------------------------------------
      LOOP:  cpu time   45.9172: real time   45.9857

 eigenvalue-minimisations  :    36
 total energy-change (2. order) :-0.2863499E-03  (-0.2177295E-05)
 number of electron      16.0000000 magnetization 
 augmentation part        0.0784691 magnetization 

 Broyden mixing:
  rms(total) = 0.45189E-03    rms(broyden)= 0.45189E-03
  rms(prec ) = 0.45931E-03
  weight for this iteration     100.00

 eigenvalues of (default mixing * dielectric matrix)
  average eigenvalue GAMMA=   2.0705
  8.3216  5.0573  3.1213  2.3518  2.2029  1.5173  1.5173  1.0645  1.0645  1.0093
  0.7700  0.7700  0.8145  0.7948  0.6814

 Free energy of the ion-electron system (eV)
  ---------------------------------------------------
  alpha Z        PSCENC =         0.01522463
  Ewald energy   TEWEN  =       750.33675549
  -Hartree energ DENC   =     -1525.26353100
  -exchange      EXHF   =         0.00000000
  -V(xc)+E(xc)   XCENC  =        65.67139115
  PAW double counting   =     23423.65037568   -23426.52244747
  entropy T*S    EENTRO =        -0.00000000
  eigenvalues    EBANDS =      -224.82578000
  atomic energy  EATOM  =       914.70769713
  Solvation  Ediel_sol  =         0.00000000
  ---------------------------------------------------
  free energy    TOTEN  =       -22.23031439 eV

  energy without entropy =      -22.23031439  energy(sigma->0) =      -22.23031439


--------------------------------------------------------------------------------------------------------




--------------------------------------- Iteration      1(  21)  ---------------------------------------


    POTLOK:  cpu time   27.2559: real time   27.2958
    SETDIJ:  cpu time    0.0539: real time    0.0539
     EDDAV:  cpu time   14.8666: real time   14.8903
       DOS:  cpu time    0.0029: real time    0.0029
    CHARGE:  cpu time    3.6615: real time    3.6668
    MIXING:  cpu time    1.2252: real time    1.2271
    --------------------------------------------
      LOOP:  cpu time   47.0659: real time   47.1367

 eigenvalue-minimisations  :    40
 total energy-change (2. order) :-0.9657567E-04  (-0.6386239E-06)
 number of electron      16.0000000 magnetization 
 augmentation part        0.0784699 magnetization 

 Broyden mixing:
  rms(total) = 0.46125E-03    rms(broyden)= 0.46125E-03
  rms(prec ) = 0.46377E-03
  weight for this iteration     100.00

 eigenvalues of (default mixing * dielectric matrix)
  average eigenvalue GAMMA=   2.0587
  8.2286  5.4596  2.8047  2.3350  2.3350  2.0604  1.6680  1.1341  1.1341  0.7696
  0.7696  0.9440  0.9440  0.9117  0.7540  0.6873

 Free energy of the ion-electron system (eV)
  ---------------------------------------------------
  alpha Z        PSCENC =         0.01522463
  Ewald energy   TEWEN  =       750.33675549
  -Hartree energ DENC   =     -1525.25700295
  -exchange      EXHF   =         0.00000000
  -V(xc)+E(xc)   XCENC  =        65.67111271
  PAW double counting   =     23420.21607938   -23423.08823490
  entropy T*S    EENTRO =        -0.00000000
  eigenvalues    EBANDS =      -224.83204245
  atomic energy  EATOM  =       914.70769713
  Solvation  Ediel_sol  =         0.00000000
  ---------------------------------------------------
  free energy    TOTEN  =       -22.23041096 eV

  energy without entropy =      -22.23041096  energy(sigma->0) =      -22.23041096


--------------------------------------------------------------------------------------------------------




--------------------------------------- Iteration      1(  22)  ---------------------------------------


    POTLOK:  cpu time   27.2685: real time   27.3074
    SETDIJ:  cpu time    0.0738: real time    0.0739
     EDDAV:  cpu time   14.8422: real time   14.8657
       DOS:  cpu time    0.0023: real time    0.0023
    CHARGE:  cpu time    3.6285: real time    3.6337
    MIXING:  cpu time    1.2430: real time    1.2471
    --------------------------------------------
      LOOP:  cpu time   47.0582: real time   47.1301

 eigenvalue-minimisations  :    40
 total energy-change (2. order) :-0.3519030E-04  (-0.8414044E-07)
 number of electron      16.0000000 magnetization 
 augmentation part        0.0784711 magnetization 

 Broyden mixing:
  rms(total) = 0.11124E-03    rms(broyden)= 0.11124E-03
  rms(prec ) = 0.11643E-03
  weight for this iteration     100.00

 eigenvalues of (default mixing * dielectric matrix)
  average eigenvalue GAMMA=   2.1381
  8.6919  5.9841  3.4743  2.8371  2.2915  2.1371  1.3640  1.3640  1.1527  1.1527
  0.7697  0.7697  1.0085  1.0085  0.8857  0.7705  0.6852

 Free energy of the ion-electron system (eV)
  ---------------------------------------------------
  alpha Z        PSCENC =         0.01522463
  Ewald energy   TEWEN  =       750.33675549
  -Hartree energ DENC   =     -1525.25367149
  -exchange      EXHF   =         0.00000000
  -V(xc)+E(xc)   XCENC  =        65.67100861
  PAW double counting   =     23422.15810368   -23425.03028964
  entropy T*S    EENTRO =        -0.00000000
  eigenvalues    EBANDS =      -224.83527456
  atomic energy  EATOM  =       914.70769713
  Solvation  Ediel_sol  =         0.00000000
  ---------------------------------------------------
  free energy    TOTEN  =       -22.23044615 eV

  energy without entropy =      -22.23044615  energy(sigma->0) =      -22.23044615


--------------------------------------------------------------------------------------------------------




--------------------------------------- Iteration      1(  23)  ---------------------------------------


    POTLOK:  cpu time   27.1772: real time   27.2158
    SETDIJ:  cpu time    0.0959: real time    0.0959
     EDDAV:  cpu time   13.6978: real time   13.7205
       DOS:  cpu time    0.0008: real time    0.0008
    CHARGE:  cpu time    3.6315: real time    3.6367
    MIXING:  cpu time    1.3811: real time    1.3833
    --------------------------------------------
      LOOP:  cpu time   45.9843: real time   46.0531

 eigenvalue-minimisations  :    36
 total energy-change (2. order) :-0.3527924E-04  (-0.1295600E-06)
 number of electron      16.0000000 magnetization 
 augmentation part        0.0784724 magnetization 

 Broyden mixing:
  rms(total) = 0.22336E-03    rms(broyden)= 0.22336E-03
  rms(prec ) = 0.22402E-03
  weight for this iteration     100.00

 eigenvalues of (default mixing * dielectric matrix)
  average eigenvalue GAMMA=   2.1471
  8.8458  6.4178  3.9554  2.6567  2.4893  2.0356  1.6115  1.6115  1.0789  1.0789
  1.0286  0.9720  0.9720  0.7695  0.7695  0.8982  0.7793  0.6765

 Free energy of the ion-electron system (eV)
  ---------------------------------------------------
  alpha Z        PSCENC =         0.01522463
  Ewald energy   TEWEN  =       750.33675549
  -Hartree energ DENC   =     -1525.25058482
  -exchange      EXHF   =         0.00000000
  -V(xc)+E(xc)   XCENC  =        65.67088223
  PAW double counting   =     23422.78475103   -23425.65696034
  entropy T*S    EENTRO =        -0.00000000
  eigenvalues    EBANDS =      -224.83824677
  atomic energy  EATOM  =       914.70769713
  Solvation  Ediel_sol  =         0.00000000
  ---------------------------------------------------
  free energy    TOTEN  =       -22.23048143 eV

  energy without entropy =      -22.23048143  energy(sigma->0) =      -22.23048143


--------------------------------------------------------------------------------------------------------




--------------------------------------- Iteration      1(  24)  ---------------------------------------


    POTLOK:  cpu time   27.1484: real time   27.1877
    SETDIJ:  cpu time    0.0556: real time    0.0556
     EDDAV:  cpu time   14.8455: real time   14.8694
       DOS:  cpu time    0.0041: real time    0.0041
    CHARGE:  cpu time    3.6297: real time    3.6348
    MIXING:  cpu time    1.4474: real time    1.4498
    --------------------------------------------
      LOOP:  cpu time   47.1307: real time   47.2014

 eigenvalue-minimisations  :    40
 total energy-change (2. order) :-0.7399675E-05  (-0.2011277E-07)
 number of electron      16.0000000 magnetization 
 augmentation part        0.0784741 magnetization 

 Broyden mixing:
  rms(total) = 0.20441E-03    rms(broyden)= 0.20441E-03
  rms(prec ) = 0.20477E-03
  weight for this iteration     100.00

 eigenvalues of (default mixing * dielectric matrix)
  average eigenvalue GAMMA=   2.0987
  8.8551  6.5512  4.0030  2.6747  2.4915  1.9460  1.9460  1.8254  1.0693  1.0693
  0.9992  0.9425  0.9425  0.7709  0.7709  0.8236  0.6722  0.7606  0.7606

 Free energy of the ion-electron system (eV)
  ---------------------------------------------------
  alpha Z        PSCENC =         0.01522463
  Ewald energy   TEWEN  =       750.33675549
  -Hartree energ DENC   =     -1525.25023676
  -exchange      EXHF   =         0.00000000
  -V(xc)+E(xc)   XCENC  =        65.67088486
  PAW double counting   =     23423.28089926   -23426.15310657
  entropy T*S    EENTRO =        -0.00000000
  eigenvalues    EBANDS =      -224.83860687
  atomic energy  EATOM  =       914.70769713
  Solvation  Ediel_sol  =         0.00000000
  ---------------------------------------------------
  free energy    TOTEN  =       -22.23048883 eV

  energy without entropy =      -22.23048883  energy(sigma->0) =      -22.23048883


--------------------------------------------------------------------------------------------------------




--------------------------------------- Iteration      1(  25)  ---------------------------------------


    POTLOK:  cpu time   27.1265: real time   27.1657
    SETDIJ:  cpu time    0.0498: real time    0.0498
     EDDAV:  cpu time   10.4386: real time   10.4554
       DOS:  cpu time    0.0034: real time    0.0034
    CHARGE:  cpu time    3.6317: real time    3.6369
    MIXING:  cpu time    1.7181: real time    1.7206
    --------------------------------------------
      LOOP:  cpu time   42.9681: real time   43.0318

 eigenvalue-minimisations  :    24
 total energy-change (2. order) :-0.3798685E-05  (-0.2699938E-08)
 number of electron      16.0000000 magnetization 
 augmentation part        0.0784738 magnetization 

 Broyden mixing:
  rms(total) = 0.14575E-03    rms(broyden)= 0.14575E-03
  rms(prec ) = 0.14606E-03
  weight for this iteration     100.00

 eigenvalues of (default mixing * dielectric matrix)
  average eigenvalue GAMMA=   2.1495
  9.0954  6.8482  4.4605  2.7775  2.7775  2.5071  2.0404  1.3976  1.2330  1.2330
  0.9779  0.9779  0.9702  0.9702  0.7691  0.7691  0.8773  0.8773  0.7532  0.6766

 Free energy of the ion-electron system (eV)
  ---------------------------------------------------
  alpha Z        PSCENC =         0.01522463
  Ewald energy   TEWEN  =       750.33675549
  -Hartree energ DENC   =     -1525.25005316
  -exchange      EXHF   =         0.00000000
  -V(xc)+E(xc)   XCENC  =        65.67088833
  PAW double counting   =     23423.16157392   -23426.03377465
  entropy T*S    EENTRO =        -0.00000000
  eigenvalues    EBANDS =      -224.83880432
  atomic energy  EATOM  =       914.70769713
  Solvation  Ediel_sol  =         0.00000000
  ---------------------------------------------------
  free energy    TOTEN  =       -22.23049263 eV

  energy without entropy =      -22.23049263  energy(sigma->0) =      -22.23049263


--------------------------------------------------------------------------------------------------------




--------------------------------------- Iteration      1(  26)  ---------------------------------------


    POTLOK:  cpu time   27.2617: real time   27.3007
    SETDIJ:  cpu time    0.0487: real time    0.0487
     EDDAV:  cpu time   12.6267: real time   12.6465
       DOS:  cpu time    0.0022: real time    0.0022
    CHARGE:  cpu time    3.6013: real time    3.6064
    MIXING:  cpu time    1.5949: real time    1.5974
    --------------------------------------------
      LOOP:  cpu time   45.1354: real time   45.2020

 eigenvalue-minimisations  :    32
 total energy-change (2. order) :-0.4861657E-05  (-0.1567699E-07)
 number of electron      16.0000000 magnetization 
 augmentation part        0.0784745 magnetization 

 Broyden mixing:
  rms(total) = 0.75735E-04    rms(broyden)= 0.75735E-04
  rms(prec ) = 0.75925E-04
  weight for this iteration     100.00

 eigenvalues of (default mixing * dielectric matrix)
  average eigenvalue GAMMA=   2.1660
  9.1706  6.9927  4.9032  3.2326  2.4028  2.4028  1.9678  1.9678  1.5861  1.2110
  1.0121  1.0121  0.9981  0.9683  0.9683  0.7689  0.7689  0.8559  0.8559  0.6747
  0.7647

 Free energy of the ion-electron system (eV)
  ---------------------------------------------------
  alpha Z        PSCENC =         0.01522463
  Ewald energy   TEWEN  =       750.33675549
  -Hartree energ DENC   =     -1525.24950228
  -exchange      EXHF   =         0.00000000
  -V(xc)+E(xc)   XCENC  =        65.67088115
  PAW double counting   =     23422.81864736   -23425.69083970
  entropy T*S    EENTRO =        -0.00000000
  eigenvalues    EBANDS =      -224.83936128
  atomic energy  EATOM  =       914.70769713
  Solvation  Ediel_sol  =         0.00000000
  ---------------------------------------------------
  free energy    TOTEN  =       -22.23049749 eV

  energy without entropy =      -22.23049749  energy(sigma->0) =      -22.23049749


--------------------------------------------------------------------------------------------------------




--------------------------------------- Iteration      1(  27)  ---------------------------------------


    POTLOK:  cpu time   27.1803: real time   27.2195
    SETDIJ:  cpu time    0.0505: real time    0.0505
     EDDAV:  cpu time   10.3256: real time   10.3418
       DOS:  cpu time    0.0045: real time    0.0045
    CHARGE:  cpu time    3.6549: real time    3.6604
    MIXING:  cpu time    1.6271: real time    1.6298
    --------------------------------------------
      LOOP:  cpu time   42.8429: real time   42.9065

 eigenvalue-minimisations  :    24
 total energy-change (2. order) :-0.1504178E-05  (-0.2399744E-08)
 number of electron      16.0000000 magnetization 
 augmentation part        0.0784747 magnetization 

 Broyden mixing:
  rms(total) = 0.61915E-04    rms(broyden)= 0.61915E-04
  rms(prec ) = 0.62028E-04
  weight for this iteration     100.00

 eigenvalues of (default mixing * dielectric matrix)
  average eigenvalue GAMMA=   2.1319
  9.2542  7.1631  5.0710  3.3264  2.5214  2.5214  2.0247  2.0247  1.6182  1.1224
  1.1224  0.8622  0.8622  0.7690  0.7690  0.9636  0.9636  0.8645  0.8645  0.7682
  0.7682  0.6775

 Free energy of the ion-electron system (eV)
  ---------------------------------------------------
  alpha Z        PSCENC =         0.01522463
  Ewald energy   TEWEN  =       750.33675549
  -Hartree energ DENC   =     -1525.24936108
  -exchange      EXHF   =         0.00000000
  -V(xc)+E(xc)   XCENC  =        65.67087918
  PAW double counting   =     23422.69115249   -23425.56334196
  entropy T*S    EENTRO =        -0.00000000
  eigenvalues    EBANDS =      -224.83950487
  atomic energy  EATOM  =       914.70769713
  Solvation  Ediel_sol  =         0.00000000
  ---------------------------------------------------
  free energy    TOTEN  =       -22.23049900 eV

  energy without entropy =      -22.23049900  energy(sigma->0) =      -22.23049900


--------------------------------------------------------------------------------------------------------




--------------------------------------- Iteration      1(  28)  ---------------------------------------


    POTLOK:  cpu time   27.1564: real time   27.1951
    SETDIJ:  cpu time    0.0484: real time    0.0484
     EDDAV:  cpu time    8.0714: real time    8.0838
       DOS:  cpu time    0.0032: real time    0.0032
    CHARGE:  cpu time    3.6605: real time    3.6658
    MIXING:  cpu time    1.7242: real time    1.7271
    --------------------------------------------
      LOOP:  cpu time   40.6640: real time   40.7234

 eigenvalue-minimisations  :    16
 total energy-change (2. order) :-0.5739773E-06  (-0.2282344E-08)
 number of electron      16.0000000 magnetization 
 augmentation part        0.0784746 magnetization 

 Broyden mixing:
  rms(total) = 0.21737E-04    rms(broyden)= 0.21737E-04
  rms(prec ) = 0.21943E-04
  weight for this iteration     100.00

 eigenvalues of (default mixing * dielectric matrix)
  average eigenvalue GAMMA=   2.1477
  9.3716  7.3228  5.3267  3.5277  2.6928  2.3510  2.3510  2.0394  1.6571  1.1965
  1.1965  1.0083  1.0083  1.0022  0.9620  0.9620  0.7691  0.7691  0.8714  0.8714
  0.7488  0.6765  0.7153

 Free energy of the ion-electron system (eV)
  ---------------------------------------------------
  alpha Z        PSCENC =         0.01522463
  Ewald energy   TEWEN  =       750.33675549
  -Hartree energ DENC   =     -1525.24926634
  -exchange      EXHF   =         0.00000000
  -V(xc)+E(xc)   XCENC  =        65.67088008
  PAW double counting   =     23422.51244478   -23425.38463482
  entropy T*S    EENTRO =        -0.00000000
  eigenvalues    EBANDS =      -224.83960052
  atomic energy  EATOM  =       914.70769713
  Solvation  Ediel_sol  =         0.00000000
  ---------------------------------------------------
  free energy    TOTEN  =       -22.23049957 eV

  energy without entropy =      -22.23049957  energy(sigma->0) =      -22.23049957


--------------------------------------------------------------------------------------------------------




--------------------------------------- Iteration      1(  29)  ---------------------------------------


    POTLOK:  cpu time   27.1852: real time   27.2244
    SETDIJ:  cpu time    0.0954: real time    0.0954
     EDDAV:  cpu time    8.0974: real time    8.1099
       DOS:  cpu time    0.0033: real time    0.0033
    CHARGE:  cpu time    3.6297: real time    3.6350
    MIXING:  cpu time    2.0772: real time    2.0803
    --------------------------------------------
      LOOP:  cpu time   41.0883: real time   41.1485

 eigenvalue-minimisations  :    16
 total energy-change (2. order) :-0.7160131E-06  (-0.2480559E-08)
 number of electron      16.0000000 magnetization 
 augmentation part        0.0784743 magnetization 

 Broyden mixing:
  rms(total) = 0.19919E-04    rms(broyden)= 0.19919E-04
  rms(prec ) = 0.19994E-04
  weight for this iteration     100.00

 eigenvalues of (default mixing * dielectric matrix)
  average eigenvalue GAMMA=   2.1919
  9.5537  7.6901  5.7373  4.0070  3.0023  2.5191  2.5191  1.8510  1.8510  1.5394
  1.1498  1.1498  0.8863  0.8863  0.7692  0.7692  1.0256  0.9387  0.9387  0.8817
  0.8817  0.7527  0.6706  0.6352

 Free energy of the ion-electron system (eV)
  ---------------------------------------------------
  alpha Z        PSCENC =         0.01522463
  Ewald energy   TEWEN  =       750.33675549
  -Hartree energ DENC   =     -1525.24925667
  -exchange      EXHF   =         0.00000000
  -V(xc)+E(xc)   XCENC  =        65.67088610
  PAW double counting   =     23422.47861197   -23425.35080434
  entropy T*S    EENTRO =        -0.00000000
  eigenvalues    EBANDS =      -224.83961459
  atomic energy  EATOM  =       914.70769713
  Solvation  Ediel_sol  =         0.00000000
  ---------------------------------------------------
  free energy    TOTEN  =       -22.23050029 eV

  energy without entropy =      -22.23050029  energy(sigma->0) =      -22.23050029


--------------------------------------------------------------------------------------------------------




--------------------------------------- Iteration      1(  30)  ---------------------------------------


    POTLOK:  cpu time   27.2798: real time   27.3193
    SETDIJ:  cpu time    0.0556: real time    0.0556
     EDDAV:  cpu time    8.0538: real time    8.0666
       DOS:  cpu time    0.0026: real time    0.0026
    CHARGE:  cpu time    3.5674: real time    3.5728
    MIXING:  cpu time    1.9928: real time    1.9960
    --------------------------------------------
      LOOP:  cpu time   40.9520: real time   41.0128

 eigenvalue-minimisations  :    16
 total energy-change (2. order) :-0.4148169E-06  (-0.2664883E-08)
 number of electron      16.0000000 magnetization 
 augmentation part        0.0784741 magnetization 

 Broyden mixing:
  rms(total) = 0.12587E-04    rms(broyden)= 0.12587E-04
  rms(prec ) = 0.12638E-04
  weight for this iteration     100.00

 eigenvalues of (default mixing * dielectric matrix)
  average eigenvalue GAMMA=   2.1602
  9.6732  7.7560  5.8880  4.0633  3.0316  2.4508  2.4508  1.9528  1.9528  1.6124
  1.1319  1.1319  0.9311  0.9311  0.7693  0.7693  0.9092  0.9092  0.9694  0.9694
  0.9331  0.7762  0.7408  0.6738  0.6290

 Free energy of the ion-electron system (eV)
  ---------------------------------------------------
  alpha Z        PSCENC =         0.01522463
  Ewald energy   TEWEN  =       750.33675549
  -Hartree energ DENC   =     -1525.24914529
  -exchange      EXHF   =         0.00000000
  -V(xc)+E(xc)   XCENC  =        65.67088636
  PAW double counting   =     23422.45902797   -23425.33122212
  entropy T*S    EENTRO =        -0.00000000
  eigenvalues    EBANDS =      -224.83972487
  atomic energy  EATOM  =       914.70769713
  Solvation  Ediel_sol  =         0.00000000
  ---------------------------------------------------
  free energy    TOTEN  =       -22.23050070 eV

  energy without entropy =      -22.23050070  energy(sigma->0) =      -22.23050070


--------------------------------------------------------------------------------------------------------




--------------------------------------- Iteration      1(  31)  ---------------------------------------


    POTLOK:  cpu time   27.2535: real time   27.2929
    SETDIJ:  cpu time    0.0601: real time    0.0601
     EDDAV:  cpu time   10.3650: real time   10.3813
       DOS:  cpu time    0.0030: real time    0.0030
    CHARGE:  cpu time    3.6619: real time    3.6673
    MIXING:  cpu time    2.0172: real time    2.0204
    --------------------------------------------
      LOOP:  cpu time   43.3607: real time   43.4251

 eigenvalue-minimisations  :    24
 total energy-change (2. order) :-0.1124924E-06  (-0.2330686E-08)
 number of electron      16.0000000 magnetization 
 augmentation part        0.0784742 magnetization 

 Broyden mixing:
  rms(total) = 0.14711E-04    rms(broyden)= 0.14711E-04
  rms(prec ) = 0.14736E-04
  weight for this iteration     100.00

 eigenvalues of (default mixing * dielectric matrix)
  average eigenvalue GAMMA=   2.1146
  9.6325  7.8334  5.8831  4.0701  2.9053  2.3561  2.3561  2.1265  2.1265  1.6407
  0.9303  0.9303  1.0859  1.0859  0.9832  0.9832  0.9945  0.9438  0.9438  0.7686
  0.7686  0.8083  0.8083  0.7578  0.6756  0.5809

 Free energy of the ion-electron system (eV)
  ---------------------------------------------------
  alpha Z        PSCENC =         0.01522463
  Ewald energy   TEWEN  =       750.33675549
  -Hartree energ DENC   =     -1525.24905521
  -exchange      EXHF   =         0.00000000
  -V(xc)+E(xc)   XCENC  =        65.67088394
  PAW double counting   =     23422.46691704   -23425.33911142
  entropy T*S    EENTRO =        -0.00000000
  eigenvalues    EBANDS =      -224.83981241
  atomic energy  EATOM  =       914.70769713
  Solvation  Ediel_sol  =         0.00000000
  ---------------------------------------------------
  free energy    TOTEN  =       -22.23050081 eV

  energy without entropy =      -22.23050081  energy(sigma->0) =      -22.23050081


--------------------------------------------------------------------------------------------------------




--------------------------------------- Iteration      1(  32)  ---------------------------------------


    POTLOK:  cpu time   27.2209: real time   27.2602
    SETDIJ:  cpu time    0.0519: real time    0.0519
     EDDAV:  cpu time   10.3334: real time   10.3510
       DOS:  cpu time    0.0031: real time    0.0031
    --------------------------------------------
      LOOP:  cpu time   37.6093: real time   37.6662

 eigenvalue-minimisations  :    24
 total energy-change (2. order) :-0.7962171E-07  (-0.2091150E-08)
 number of electron      16.0000000 magnetization 
 augmentation part        0.0784742 magnetization 

 Free energy of the ion-electron system (eV)
  ---------------------------------------------------
  alpha Z        PSCENC =         0.01522463
  Ewald energy   TEWEN  =       750.33675549
  -Hartree energ DENC   =     -1525.24900573
  -exchange      EXHF   =         0.00000000
  -V(xc)+E(xc)   XCENC  =        65.67088296
  PAW double counting   =     23422.51286239   -23425.38505665
  entropy T*S    EENTRO =        -0.00000000
  eigenvalues    EBANDS =      -224.83986110
  atomic energy  EATOM  =       914.70769713
  Solvation  Ediel_sol  =         0.00000000
  ---------------------------------------------------
  free energy    TOTEN  =       -22.23050089 eV

  energy without entropy =      -22.23050089  energy(sigma->0) =      -22.23050089


--------------------------------------------------------------------------------------------------------




 average (electrostatic) potential at core
  the test charge radii are     0.4325  0.5955
  (the norm of the test charge is              1.0000)
       1 -47.4587       2 -47.4654       3 -47.5382       4 -47.3844       5-120.0135
       6-120.0127
 
 
 
 E-fermi :  -3.4360     XC(G=0):  -0.0392     alpha+bet : -0.0063


 k-point     1 :       0.0000    0.0000    0.0000
  band No.  band energies     occupation 
      1     -27.4500      2.00000
      2     -24.6611      2.00000
      3     -14.4607      2.00000
      4     -14.3485      2.00000
      5     -12.6248      2.00000
      6      -9.1732      2.00000
      7      -6.1555      2.00000
      8      -3.5463      2.00000
      9      -1.2730      0.00000
     10      -0.1420      0.00000
     11      -0.1275      0.00000
     12      -0.0028      0.00000


--------------------------------------------------------------------------------------------------------


 soft charge-density along one line, spin component            1
         0         1         2         3         4         5         6         7         8         9
 total charge-density along one line
 
 pseudopotential strength for first ion, spin component:            1
 -2.534  -5.388  -0.005  -0.007   0.000
 -5.388 -11.432  -0.011  -0.016   0.000
 -0.005  -0.011  -1.385   0.009  -0.000
 -0.007  -0.016   0.009  -1.376  -0.000
  0.000   0.000  -0.000  -0.000  -1.391
 total augmentation occupancy for first ion, spin component:            1
  4.267  -0.818   0.229   0.298  -0.007
 -0.818   0.189  -0.050  -0.059   0.001
  0.229  -0.050   0.020   0.014  -0.000
  0.298  -0.059   0.014   0.022  -0.000
 -0.007   0.001  -0.000  -0.000   0.011


------------------------ aborting loop because EDIFF is reached ----------------------------------------



 DIPCOR: dipole corrections for dipol
 direction  1 min pos   480, direction  2 min pos   545, direction  3 min pos   513,
 dipolmoment          -0.013287      0.000379      0.015309 electrons x Angstroem
 Tr[quadrupol]         7.452217

 energy correction for charged system         0.000000 eV
 dipol+quadrupol energy correction            0.000000 eV
 added-field ion interaction          0.000000 eV  (added to PSCEN)

 
  *************** adding dipol energy to TOTEN NOW **************** 
    CHARGE:  cpu time    3.5869: real time    3.5926
    FORLOC:  cpu time    1.1909: real time    1.1924
    FORNL :  cpu time    0.4137: real time    0.4143
    STRESS:  cpu time    5.8007: real time    5.8095
    FORCOR:  cpu time   25.9096: real time   25.9462
    FORHAR:  cpu time    7.7830: real time    7.7988
    MIXING:  cpu time    2.1107: real time    2.1140
    OFIELD:  cpu time    0.0000: real time    0.0000

  FORCE on cell =-STRESS in cart. coord.  units (eV):
  Direction    XX          YY          ZZ          XY          YZ          ZX
  --------------------------------------------------------------------------------------
  Alpha Z     0.01522     0.01522     0.01522
  Ewald     -49.72860   587.20415   212.86061     2.97186     0.92549    -4.21235
  Hartree   372.44950   727.61089   425.18841     0.91811     0.05130    -0.84407
  E(xc)     -75.40252   -73.70950   -74.24528     0.01275     0.01042    -0.01857
  Local    -656.56293 -1575.55153  -890.32876    -3.11080    -0.45051     3.74685
  n-local   -47.40370   -40.81932   -36.23412     0.09120     0.03346    -0.18001
  augment     1.76222     0.41453     0.24274    -0.01613    -0.00688     0.02453
  Kinetic   454.86816   407.61326   366.08048    -0.79767    -0.31874     1.42856
  Fock        0.00000     0.00000     0.00000     0.00000     0.00000     0.00000
  -------------------------------------------------------------------------------------
  Total      -0.00265    32.77770     3.57930     0.06931     0.24453    -0.05506
  in kB      -0.00010     1.22486     0.13375     0.00259     0.00914    -0.00206
  external pressure =        0.45 kB  Pullay stress =        0.00 kB


 VOLUME and BASIS-vectors are now :
 -----------------------------------------------------------------------------
  energy-cutoff  :     2000.00
  volume of cell :    42875.00
      direct lattice vectors                 reciprocal lattice vectors
    35.000000000  0.000000000  0.000000000     0.028571429  0.000000000  0.000000000
     0.000000000 35.000000000  0.000000000     0.000000000  0.028571429  0.000000000
     0.000000000  0.000000000 35.000000000     0.000000000  0.000000000  0.028571429

  length of vectors
    35.000000000 35.000000000 35.000000000     0.028571429  0.028571429  0.028571429


 FORCES acting on ions
    electron-ion (+dipol)            ewald-force                    non-local-force                 convergence-correction
 -----------------------------------------------------------------------------------------------
   -.179E+01 0.702E+02 0.791E+02   0.197E+01 -.768E+02 -.870E+02   -.153E+00 0.477E+01 0.667E+01   0.733E-07 0.317E-05 0.167E-05
   0.143E+01 0.709E+02 -.785E+02   -.157E+01 -.776E+02 0.863E+02   0.116E+00 0.485E+01 -.661E+01   0.150E-06 0.329E-05 -.191E-05
   -.293E+01 -.674E+02 0.817E+02   0.323E+01 0.736E+02 -.897E+02   -.252E+00 -.454E+01 0.688E+01   0.825E-07 -.339E-05 0.152E-05
   -.125E+01 -.734E+02 -.758E+02   0.138E+01 0.806E+02 0.834E+02   -.108E+00 -.506E+01 -.639E+01   0.115E-06 -.362E-05 -.172E-05
   0.658E+00 0.187E+03 -.108E+01   -.756E+00 -.148E+03 0.149E+01   0.875E-01 -.539E+02 -.483E+00   0.679E-06 0.301E-04 0.123E-05
   0.266E+01 -.187E+03 -.253E+01   -.425E+01 0.148E+03 0.550E+01   0.154E+01 0.538E+02 -.291E+01   0.113E-05 -.344E-04 0.265E-06
 -----------------------------------------------------------------------------------------------
   -.123E+01 0.857E-01 0.285E+01   0.000E+00 -.284E-13 -.169E-13   0.123E+01 -.857E-01 -.285E+01   0.223E-05 -.487E-05 0.105E-05
 
 
 POSITION                                       TOTAL-FORCE (eV/Angst)
 -----------------------------------------------------------------------------------
      0.01761      0.64046     34.23865         0.025780     -1.895315     -1.195265
     34.98662      0.63163      0.75455        -0.031518     -1.847620      1.179280
      0.02970      3.28138     34.21499         0.041325      1.673703     -1.162909
      0.01365      3.35327      0.72944         0.028513      2.069437      1.194635
      0.00000      1.22721      0.00000        -0.010873    -15.155119     -0.078752
      0.00000      2.72721      0.00000        -0.053226     15.154914      0.063012
 -----------------------------------------------------------------------------------
    total drift:                               -0.000004      0.000015      0.000005


--------------------------------------------------------------------------------------------------------



  FREE ENERGIE OF THE ION-ELECTRON SYSTEM (eV)
  ---------------------------------------------------
  free  energy   TOTEN  =       -22.23050060 eV

  energy  without entropy=      -22.23050060  energy(sigma->0) =      -22.23050060
 


--------------------------------------------------------------------------------------------------------


    POTLOK:  cpu time   27.3313: real time   27.3701


--------------------------------------------------------------------------------------------------------


 writing wavefunctions
     LOOP+:  cpu time 2299.5911: real time 2309.0900
    4ORBIT:  cpu time    0.0000: real time    0.0000

 total amount of memory used by VASP MPI-rank0  4207116. kBytes
=======================================================================

   base      :      30000. kBytes
   nonl-proj :     121908. kBytes
   fftplans  :    1475802. kBytes
   grid      :    2553282. kBytes
   one-center:          1. kBytes
   wavefun   :      26123. kBytes
 
  
  
 General timing and accounting informations for this job:
 ========================================================
  
                  Total CPU time used (sec):     3291.608
                            User time (sec):     3171.820
                          System time (sec):      119.788
                         Elapsed time (sec):     3315.244
  
                   Maximum memory used (kb):     5191320.
                   Average memory used (kb):           0.
  
                          Minor page faults:     75638993
                          Major page faults:          272
                 Voluntary context switches:        16329
