 vasp.6.1.2 22Jul20 (build Jan  6 2021 09:55:43) gamma-only                      
 executed on             LinuxPGI date 2021.03.02  14:52:05
 running on   32 total cores
 distrk:  each k-point on   32 cores,    1 groups
 distr:  one band on NCORE=   8 cores,    4 groups


--------------------------------------------------------------------------------------------------------


 INCAR:
 POTCAR:    PAW_PBE H_h 06Feb2004                 
 POTCAR:    PAW_PBE O_h 06Feb2004                 
 POTCAR:    PAW_PBE H_h 06Feb2004                 
   VRHFIN =H: ultrasoft test                                                                        
   LEXCH  = PE                                                                                      
   EATOM  =    12.4884 eV,    0.9179 Ry                                                             
                                                                                                    
   TITEL  = PAW_PBE H_h 06Feb2004                                                                   
   LULTRA =        F    use ultrasoft PP ?                                                          
   IUNSCR =        0    unscreen: 0-lin 1-nonlin 2-no                                               
   RPACOR =    0.000    partial core radius                                                         
   POMASS =    1.000; ZVAL   =    1.000    mass and valenz                                          
   RCORE  =    0.800    outmost cutoff radius                                                       
   RWIGS  =    0.700; RWIGS  =    0.370    wigner-seitz radius (au A)                               
   ENMAX  =  700.000; ENMIN  =  350.000 eV                                                          
   RCLOC  =    0.701    cutoff for local pot                                                        
   LCOR   =        T    correct aug charges                                                         
   LPAW   =        T    paw PP                                                                      
   EAUG   = 1000.000                                                                                
   RMAX   =    0.819    core radius for proj-oper                                                   
   RAUG   =    1.000    factor for augmentation sphere                                              
   RDEP   =    0.817    radius for radial grids                                                     
   RDEPT  =    0.817    core radius for aug-charge                                                  
                                                                                                    
   Atomic configuration                                                                             
    2 entries                                                                                       
     n  l   j            E        occ.                                                              
     1  0  0.50        -6.4927   1.0000                                                             
     2  1  0.50        -3.4015   0.0000                                                             
   Description                                                                                      
     l       E           TYP  RCUT    TYP  RCUT                                                     
     0     -6.4927493     23  0.800                                                                 
     0      6.8029130     23  0.800                                                                 
     1     -6.8029130     23  0.800                                                                 
  local pseudopotential read in
  atomic valenz-charges read in
  non local Contribution for L=            0  read in
    real space projection operators read in
  non local Contribution for L=            0  read in
    real space projection operators read in
  non local Contribution for L=            1  read in
    real space projection operators read in
    PAW grid and wavefunctions read in
 
   number of l-projection  operators is LMAX  =            3
   number of lm-projection operators is LMMAX =            5
 
 POTCAR:    PAW_PBE O_h 06Feb2004                 
   VRHFIN =O: s2p4                                                                                  
   LEXCH  = PE                                                                                      
   EATOM  =   432.3788 eV,   31.7789 Ry                                                             
                                                                                                    
   TITEL  = PAW_PBE O_h 06Feb2004                                                                   
   LULTRA =        F    use ultrasoft PP ?                                                          
   IUNSCR =        1    unscreen: 0-lin 1-nonlin 2-no                                               
   RPACOR =    0.800    partial core radius                                                         
   POMASS =   16.000; ZVAL   =    6.000    mass and valenz                                          
   RCORE  =    1.100    outmost cutoff radius                                                       
   RWIGS  =    1.400; RWIGS  =    0.741    wigner-seitz radius (au A)                               
   ENMAX  =  700.000; ENMIN  =  500.000 eV                                                          
   ICORE  =        2    local potential                                                             
   LCOR   =        T    correct aug charges                                                         
   LPAW   =        T    paw PP                                                                      
   EAUG   =  888.804                                                                                
   DEXC   =    0.000                                                                                
   RMAX   =    1.128    core radius for proj-oper                                                   
   RAUG   =    1.300    factor for augmentation sphere                                              
   RDEP   =    1.125    radius for radial grids                                                     
   RDEPT  =    1.088    core radius for aug-charge                                                  
                                                                                                    
   Atomic configuration                                                                             
    4 entries                                                                                       
     n  l   j            E        occ.                                                              
     1  0  0.50      -514.6923   2.0000                                                             
     2  0  0.50       -23.9615   2.0000                                                             
     2  1  0.50        -9.0305   4.0000                                                             
     3  2  1.50        -9.5241   0.0000                                                             
   Description                                                                                      
     l       E           TYP  RCUT    TYP  RCUT                                                     
     0    -23.9615319     23  1.100                                                                 
     0    -25.3221145     23  1.100                                                                 
     1     -9.0304911     23  1.100                                                                 
     1     -5.4802209     23  1.100                                                                 
     2     -9.5240782      7  1.100                                                                 
  local pseudopotential read in
  partial core-charges read in
  partial kinetic energy density read in
  atomic valenz-charges read in
  non local Contribution for L=            0  read in
    real space projection operators read in
  non local Contribution for L=            0  read in
    real space projection operators read in
  non local Contribution for L=            1  read in
    real space projection operators read in
  non local Contribution for L=            1  read in
    real space projection operators read in
    PAW grid and wavefunctions read in
 
   number of l-projection  operators is LMAX  =            4
   number of lm-projection operators is LMMAX =            8
 
  PAW_PBE H_h 06Feb2004                 :
 energy of atom  1       EATOM=  -12.4884
 kinetic energy error for atom=    0.0001 (will be added to EATOM!!)
  PAW_PBE O_h 06Feb2004                 :
 energy of atom  2       EATOM= -432.3788
 kinetic energy error for atom=    0.0016 (will be added to EATOM!!)
 
 
 POSCAR:  H  O
  positions in cartesian coordinates
  No initial velocities read in
 exchange correlation table for  LEXCH =        8
   RHO(1)=    0.500       N(1)  =     2000
   RHO(2)=  100.500       N(2)  =     4000
 


--------------------------------------------------------------------------------------------------------


 ion  position               nearest neighbor table
   1  0.001  0.018  0.978-   5 0.96
   2  1.000  0.018  0.022-   5 0.96
   3  0.001  0.148  0.978-   6 0.96
   4  0.000  0.150  0.021-   6 0.96
   5  0.000  0.035  0.000-   1 0.96   2 0.96
   6  0.000  0.132  0.000-   4 0.96   3 0.96
 
  LATTYP: Found a simple cubic cell.
 ALAT       =    35.0000000000
  
  Lattice vectors:
  
 A1 = (  35.0000000000,   0.0000000000,   0.0000000000)
 A2 = (   0.0000000000,  35.0000000000,   0.0000000000)
 A3 = (   0.0000000000,   0.0000000000,  35.0000000000)


Analysis of symmetry for initial positions (statically):
=====================================================================
 Subroutine PRICEL returns:
 Original cell was already a primitive cell.
 

 Routine SETGRP: Setting up the symmetry group for a 
 simple cubic supercell.


 Subroutine GETGRP returns: Found  1 space group operations
 (whereof  1 operations were pure point group operations)
 out of a pool of 48 trial point group operations.


The static configuration has the point symmetry C_1 .


Analysis of symmetry for dynamics (positions and initial velocities):
=====================================================================
 Subroutine PRICEL returns:
 Original cell was already a primitive cell.
 

 Routine SETGRP: Setting up the symmetry group for a 
 simple cubic supercell.


 Subroutine GETGRP returns: Found  1 space group operations
 (whereof  1 operations were pure point group operations)
 out of a pool of 48 trial point group operations.


The dynamic configuration has the point symmetry C_1 .


 Subroutine INISYM returns: Found  1 space group operations
 (whereof  1 operations are pure point group operations),
 and found     1 'primitive' translations


----------------------------------------------------------------------------------------

                                     Primitive cell                                     

  volume of cell :   42875.0000

  direct lattice vectors                    reciprocal lattice vectors
    35.000000000  0.000000000  0.000000000     0.028571429  0.000000000  0.000000000
     0.000000000 35.000000000  0.000000000     0.000000000  0.028571429  0.000000000
     0.000000000  0.000000000 35.000000000     0.000000000  0.000000000  0.028571429

  length of vectors
    35.000000000 35.000000000 35.000000000     0.028571429  0.028571429  0.028571429

  position of ions in fractional coordinates (direct lattice)
     0.000503079  0.018298976  0.978247097
     0.999617776  0.018046666  0.021558586
     0.000848682  0.148039356  0.977571084
     0.000390051  0.150093529  0.020841195
     0.000000000  0.035063029  0.000000000
     0.000000000  0.132205886  0.000000000

  ion indices of the primitive-cell ions
   primitive index   ion index
                 1           1
                 2           2
                 3           3
                 4           4
                 5           5
                 6           6

----------------------------------------------------------------------------------------

 
 
 KPOINTS: automatic mesh                          

Automatic generation of k-mesh.
Space group operators:
 irot       det(A)        alpha          n_x          n_y          n_z        tau_x        tau_y        tau_z
    1     1.000000     0.000000     1.000000     0.000000     0.000000     0.000000     0.000000     0.000000
 
 Subroutine IBZKPT returns following result:
 ===========================================
 
 Found      1 irreducible k-points:
 
 Following reciprocal coordinates:
            Coordinates               Weight
  0.000000  0.000000  0.000000      1.000000
 
 Following cartesian coordinates:
            Coordinates               Weight
  0.000000  0.000000  0.000000      1.000000
 


--------------------------------------------------------------------------------------------------------




 Dimension of arrays:
   k-points           NKPTS =      1   k-points in BZ     NKDIM =      1   number of bands    NBANDS=     12
   number of dos      NEDOS =    301   number of ions     NIONS =      6
   non local maximal  LDIM  =      4   non local SUM 2l+1 LMDIM =      8
   total plane-waves  NPLWV = ******
   max r-space proj   IRMAX =      1   max aug-charges    IRDMAX=  23028
   dimension x,y,z NGX =   512 NGY =  512 NGZ =  512
   dimension x,y,z NGXF=  1024 NGYF= 1024 NGZF= 1024
   support grid    NGXF=  1024 NGYF= 1024 NGZF= 1024
   ions per type =               4   2
   NGX,Y,Z   is equivalent  to a cutoff of  24.32, 24.32, 24.32 a.u.
   NGXF,Y,Z  is equivalent  to a cutoff of  48.64, 48.64, 48.64 a.u.

 SYSTEM =  C                                       
 POSCAR =   H  O                                   

 Startparameter for this run:
   NWRITE =      2    write-flag & timer
   PREC   = acc       normal or accurate (medium, high low for compatibility)
   ISTART =      0    job   : 0-new  1-cont  2-samecut
   ICHARG =      2    charge: 1-file 2-atom 10-const
   ISPIN  =      1    spin polarized calculation?
   LNONCOLLINEAR =      F non collinear calculations
   LSORBIT =      F    spin-orbit coupling
   INIWAV =      1    electr: 0-lowe 1-rand  2-diag
   LASPH  =      T    aspherical Exc in radial PAW
   METAGGA=      F    non-selfconsistent MetaGGA calc.

 Electronic Relaxation 1
   ENCUT  = 2000.0 eV 147.00 Ry   12.12 a.u. 127.63127.63127.63*2*pi/ulx,y,z
   ENINI  = 2000.0     initial cutoff
   ENAUG  = 1000.0 eV  augmentation charge cutoff
   NELM   =     60;   NELMIN=  2; NELMDL= -5     # of ELM steps 
   EDIFF  = 0.1E-06   stopping-criterion for ELM
   LREAL  =      F    real-space projection
   NLSPLINE    = F    spline interpolate recip. space projectors
   LCOMPAT=      F    compatible to vasp.4.4
   GGA_COMPAT  = T    GGA compatible to vasp.4.4-vasp.4.6
   LMAXPAW     = -100 max onsite density
   LMAXMIX     =    2 max onsite mixed and CHGCAR
   VOSKOWN=      0    Vosko Wilk Nusair interpolation
   ROPT   =    0.00000   0.00000
 Ionic relaxation
   EDIFFG = 0.1E-05   stopping-criterion for IOM
   NSW    =      0    number of steps for IOM
   NBLOCK =      1;   KBLOCK =      1    inner block; outer block 
   IBRION =     -1    ionic relax: 0-MD 1-quasi-New 2-CG
   NFREE  =      0    steps in history (QN), initial steepest desc. (CG)
   ISIF   =      2    stress and relaxation
   IWAVPR =     10    prediction:  0-non 1-charg 2-wave 3-comb
   ISYM   =      2    0-nonsym 1-usesym 2-fastsym
   LCORR  =      T    Harris-Foulkes like correction to forces

   POTIM  = 0.5000    time-step for ionic-motion
   TEIN   =    0.0    initial temperature
   TEBEG  =    0.0;   TEEND  =   0.0 temperature during run
   SMASS  =  -3.00    Nose mass-parameter (am)
   estimated Nose-frequenzy (Omega)   =  0.10E-29 period in steps = 0.13E+47 mass=  -0.280E-25a.u.
   SCALEE = 1.0000    scale energy and forces
   NPACO  =    256;   APACO  = 16.0  distance and # of slots for P.C.
   PSTRESS=    0.0 pullay stress

  Mass of Ions in am
   POMASS =   1.00 16.00
  Ionic Valenz
   ZVAL   =   1.00  6.00
  Atomic Wigner-Seitz radii
   RWIGS  =  -1.00 -1.00
  virtual crystal weights 
   VCA    =   1.00  1.00
   NELECT =      16.0000    total number of electrons
   NUPDOWN=      -1.0000    fix difference up-down

 DOS related values:
   EMIN   =  10.00;   EMAX   =-10.00  energy-range for DOS
   EFERMI =   0.00
   ISMEAR =     0;   SIGMA  =   0.01  broadening in eV -4-tet -1-fermi 0-gaus

 Electronic relaxation 2 (details)
   IALGO  =     38    algorithm
   LDIAG  =      T    sub-space diagonalisation (order eigenvalues)
   LSUBROT=      F    optimize rotation matrix (better conditioning)
   TURBO    =      0    0=normal 1=particle mesh
   IRESTART =      0    0=no restart 2=restart with 2 vectors
   NREBOOT  =      0    no. of reboots
   NMIN     =      0    reboot dimension
   EREF     =   0.00    reference energy to select bands
   IMIX   =      4    mixing-type and parameters
     AMIX     =   0.40;   BMIX     =  1.00
     AMIX_MAG =   1.60;   BMIX_MAG =  1.00
     AMIN     =   0.10
     WC   =   100.;   INIMIX=   1;  MIXPRE=   1;  MAXMIX= -45

 Intra band minimization:
   WEIMIN = 0.0000     energy-eigenvalue tresh-hold
   EBREAK =  0.21E-08  absolut break condition
   DEPER  =   0.30     relativ break condition  

   TIME   =   0.40     timestep for ELM

  volume/ion in A,a.u.               =    7145.83     48222.46
  Fermi-wavevector in a.u.,A,eV,Ry     =   0.117864  0.222730  0.189010  0.013892
  Thomas-Fermi vector in A             =   0.732055
 
 Write flags
   LWAVE        =      T    write WAVECAR
   LDOWNSAMPLE  =      F    k-point downsampling of WAVECAR
   LCHARG       =      T    write CHGCAR
   LVTOT        =      F    write LOCPOT, total local potential
   LVHAR        =      F    write LOCPOT, Hartree potential only
   LELF         =      F    write electronic localiz. function (ELF)
   LORBIT       =      0    0 simple, 1 ext, 2 COOP (PROOUT), +10 PAW based schemes


 Dipole corrections
   LMONO  =      F    monopole corrections only (constant potential shift)
   LDIPOL =      F    correct potential (dipole corrections)
   IDIPOL =      4    1-x, 2-y, 3-z, 4-all directions 
   EPSILON=  1.0000000 bulk dielectric constant

 Exchange correlation treatment:
   GGA     =    --    GGA type
   LEXCH   =     8    internal setting for exchange type
   VOSKOWN=      0    Vosko Wilk Nusair interpolation
   LHFCALC =     F    Hartree Fock is set to
   LHFONE  =     F    Hartree Fock one center treatment
   AEXX    =    0.0000 exact exchange contribution

 Linear response parameters
   LEPSILON=     F    determine dielectric tensor
   LRPA    =     F    only Hartree local field effects (RPA)
   LNABLA  =     F    use nabla operator in PAW spheres
   LVEL    =     F    velocity operator in full k-point grid
   LINTERFAST=   F  fast interpolation
   KINTER  =     0    interpolate to denser k-point grid
   CSHIFT  =0.1000    complex shift for real part using Kramers Kronig
   OMEGAMAX=  -1.0    maximum frequency
   DEG_THRESHOLD= 0.2000000E-02 threshold for treating states as degnerate
   RTIME   =   -0.100 relaxation time in fs
  (WPLASMAI=    0.000 imaginary part of plasma frequency in eV, 0.658/RTIME)
   DFIELD  = 0.0000000 0.0000000 0.0000000 field for delta impulse in time
 
 Orbital magnetization related:
   ORBITALMAG=     F  switch on orbital magnetization
   LCHIMAG   =     F  perturbation theory with respect to B field
   DQ        =  0.001000  dq finite difference perturbation B field
   LLRAUG    =     F  two centre corrections for induced B field



--------------------------------------------------------------------------------------------------------


 Static calculation
 charge density and potential will be updated during run
 non-spin polarized calculation
 Variant of blocked Davidson
 Davidson routine will perform the subspace rotation
 perform sub-space diagonalisation
    after iterative eigenvector-optimisation
 modified Broyden-mixing scheme, WC =      100.0
 initial mixing is a Kerker type mixing with AMIX =  0.4000 and BMIX =      1.0000
 Hartree-type preconditioning will be used
 using additional bands             4
 reciprocal scheme for non local part
 use partial core corrections
 calculate Harris-corrections to forces 
   (improved forces if not selfconsistent)
 use gradient corrections 
 use of overlap-Matrix (Vanderbilt PP)
 Gauss-broadening in eV      SIGMA  =   0.01


--------------------------------------------------------------------------------------------------------


  energy-cutoff  :     2000.00
  volume of cell :    42875.00
      direct lattice vectors                 reciprocal lattice vectors
    35.000000000  0.000000000  0.000000000     0.028571429  0.000000000  0.000000000
     0.000000000 35.000000000  0.000000000     0.000000000  0.028571429  0.000000000
     0.000000000  0.000000000 35.000000000     0.000000000  0.000000000  0.028571429

  length of vectors
    35.000000000 35.000000000 35.000000000     0.028571429  0.028571429  0.028571429


 
 k-points in units of 2pi/SCALE and weight: automatic mesh                          
   0.00000000  0.00000000  0.00000000       1.000
 
 k-points in reciprocal lattice and weights: automatic mesh                          
   0.00000000  0.00000000  0.00000000       1.000
 
 position of ions in fractional coordinates (direct lattice) 
   0.00050308  0.01829898  0.97824710
   0.99961778  0.01804667  0.02155859
   0.00084868  0.14803936  0.97757108
   0.00039005  0.15009353  0.02084119
   0.00000000  0.03506303  0.00000000
   0.00000000  0.13220589  0.00000000
 
 position of ions in cartesian coordinates  (Angst):
   0.01760775  0.64046416 34.23864840
  34.98662216  0.63163330  0.75455051
   0.02970387  5.18137746 34.21498793
   0.01365177  5.25327352  0.72944182
   0.00000000  1.22720600  0.00000000
   0.00000000  4.62720600  0.00000000
 


--------------------------------------------------------------------------------------------------------


 use parallel FFT for orbitals z direction half grid
 k-point   1 :   0.0000 0.0000 0.0000  plane waves: 4353902

 maximum and minimum number of plane-waves per node :    544247   544233

 maximum number of plane-waves:   4353902
 maximum index in each direction: 
   IXMAX=  127   IYMAX=  127   IZMAX=  127
   IXMIN= -127   IYMIN= -127   IZMIN=    0


 parallel 3D FFT for wavefunctions:
    minimum data exchange during FFTs selected (reduces bandwidth)
 parallel 3D FFT for charge:
    minimum data exchange during FFTs selected (reduces bandwidth)


 total amount of memory used by VASP MPI-rank0  4207116. kBytes
=======================================================================

   base      :      30000. kBytes
   nonl-proj :     121908. kBytes
   fftplans  :    1475802. kBytes
   grid      :    2553282. kBytes
   one-center:          1. kBytes
   wavefun   :      26123. kBytes
 
     INWAV:  cpu time    0.0000: real time    0.0000
 Broyden mixing: mesh for mixing (old mesh)
   NGX =255   NGY =255   NGZ =255
  (NGX  =***   NGY  =***   NGZ  =***)
  gives a total of ****** points

 initial charge density was supplied:
 charge density of overlapping atoms calculated
 number of electron      16.0000000 magnetization 
 keeping initial charge density in first step


--------------------------------------------------------------------------------------------------------


 Maximum index for augmentation-charges           955 (set IRDMAX)


--------------------------------------------------------------------------------------------------------


 First call to EWALD:  gamma=   0.051
 Maximum number of real-space cells 3x 3x 3
 Maximum number of reciprocal cells 3x 3x 3

    FEWALD:  cpu time    0.0017: real time    0.0017


--------------------------------------- Iteration      1(   1)  ---------------------------------------


    POTLOK:  cpu time   26.6845: real time   26.7228
    SETDIJ:  cpu time    0.0569: real time    0.0586
     EDDAV:  cpu time   14.2788: real time   16.3819
       DOS:  cpu time    0.0038: real time    0.0038
    --------------------------------------------
      LOOP:  cpu time   41.0240: real time   43.1671

 eigenvalue-minimisations  :    40
 total energy-change (2. order) : 0.1547158E+03  (-0.3146135E+03)
 number of electron      16.0000000 magnetization 
 augmentation part       16.0000000 magnetization 

 Free energy of the ion-electron system (eV)
  ---------------------------------------------------
  alpha Z        PSCENC =         0.01522463
  Ewald energy   TEWEN  =       479.52511092
  -Hartree energ DENC   =     -1192.67257343
  -exchange      EXHF   =         0.00000000
  -V(xc)+E(xc)   XCENC  =        61.06005740
  PAW double counting   =       697.41634940     -699.85762974
  entropy T*S    EENTRO =        -0.00000000
  eigenvalues    EBANDS =      -105.47842712
  atomic energy  EATOM  =       914.70769713
  Solvation  Ediel_sol  =         0.00000000
  ---------------------------------------------------
  free energy    TOTEN  =       154.71580920 eV

  energy without entropy =      154.71580920  energy(sigma->0) =      154.71580920


--------------------------------------------------------------------------------------------------------




--------------------------------------- Iteration      1(   2)  ---------------------------------------


     EDDAV:  cpu time   14.2314: real time   14.2556
       DOS:  cpu time    0.0068: real time    0.0068
    --------------------------------------------
      LOOP:  cpu time   14.2382: real time   14.2624

 eigenvalue-minimisations  :    40
 total energy-change (2. order) :-0.7626098E+02  (-0.7613729E+02)
 number of electron      16.0000000 magnetization 
 augmentation part       16.0000000 magnetization 

 Free energy of the ion-electron system (eV)
  ---------------------------------------------------
  alpha Z        PSCENC =         0.01522463
  Ewald energy   TEWEN  =       479.52511092
  -Hartree energ DENC   =     -1192.67257343
  -exchange      EXHF   =         0.00000000
  -V(xc)+E(xc)   XCENC  =        61.06005740
  PAW double counting   =       697.41634940     -699.85762974
  entropy T*S    EENTRO =        -0.00000000
  eigenvalues    EBANDS =      -181.73940671
  atomic energy  EATOM  =       914.70769713
  Solvation  Ediel_sol  =         0.00000000
  ---------------------------------------------------
  free energy    TOTEN  =        78.45482961 eV

  energy without entropy =       78.45482961  energy(sigma->0) =       78.45482961


--------------------------------------------------------------------------------------------------------




--------------------------------------- Iteration      1(   3)  ---------------------------------------


     EDDAV:  cpu time   14.2183: real time   14.2408
       DOS:  cpu time    0.0007: real time    0.0007
    --------------------------------------------
      LOOP:  cpu time   14.2190: real time   14.2414

 eigenvalue-minimisations  :    40
 total energy-change (2. order) :-0.7118856E+02  (-0.7100582E+02)
 number of electron      16.0000000 magnetization 
 augmentation part       16.0000000 magnetization 

 Free energy of the ion-electron system (eV)
  ---------------------------------------------------
  alpha Z        PSCENC =         0.01522463
  Ewald energy   TEWEN  =       479.52511092
  -Hartree energ DENC   =     -1192.67257343
  -exchange      EXHF   =         0.00000000
  -V(xc)+E(xc)   XCENC  =        61.06005740
  PAW double counting   =       697.41634940     -699.85762974
  entropy T*S    EENTRO =        -0.00000000
  eigenvalues    EBANDS =      -252.92797109
  atomic energy  EATOM  =       914.70769713
  Solvation  Ediel_sol  =         0.00000000
  ---------------------------------------------------
  free energy    TOTEN  =         7.26626524 eV

  energy without entropy =        7.26626524  energy(sigma->0) =        7.26626524


--------------------------------------------------------------------------------------------------------




--------------------------------------- Iteration      1(   4)  ---------------------------------------


     EDDAV:  cpu time   12.0452: real time   12.0640
       DOS:  cpu time    0.0026: real time    0.0026
    --------------------------------------------
      LOOP:  cpu time   12.0478: real time   12.0666

 eigenvalue-minimisations  :    32
 total energy-change (2. order) :-0.3266078E+02  (-0.1902323E+02)
 number of electron      16.0000000 magnetization 
 augmentation part       16.0000000 magnetization 

 Free energy of the ion-electron system (eV)
  ---------------------------------------------------
  alpha Z        PSCENC =         0.01522463
  Ewald energy   TEWEN  =       479.52511092
  -Hartree energ DENC   =     -1192.67257343
  -exchange      EXHF   =         0.00000000
  -V(xc)+E(xc)   XCENC  =        61.06005740
  PAW double counting   =       697.41634940     -699.85762974
  entropy T*S    EENTRO =        -0.00000000
  eigenvalues    EBANDS =      -285.58875234
  atomic energy  EATOM  =       914.70769713
  Solvation  Ediel_sol  =         0.00000000
  ---------------------------------------------------
  free energy    TOTEN  =       -25.39451602 eV

  energy without entropy =      -25.39451602  energy(sigma->0) =      -25.39451602


--------------------------------------------------------------------------------------------------------




--------------------------------------- Iteration      1(   5)  ---------------------------------------


     EDDAV:  cpu time   12.1285: real time   12.1475
       DOS:  cpu time    0.0021: real time    0.0021
    CHARGE:  cpu time    3.5521: real time    3.5571
    MIXING:  cpu time    0.5359: real time    0.5368
    --------------------------------------------
      LOOP:  cpu time   16.2187: real time   16.2435

 eigenvalue-minimisations  :    32
 total energy-change (2. order) :-0.7146120E+01  (-0.7140460E+01)
 number of electron      16.0000000 magnetization 
 augmentation part        0.2114039 magnetization 

 Broyden mixing:
  rms(total) = 0.19398E+01    rms(broyden)= 0.19398E+01
  rms(prec ) = 0.19600E+01
  weight for this iteration     100.00

 Free energy of the ion-electron system (eV)
  ---------------------------------------------------
  alpha Z        PSCENC =         0.01522463
  Ewald energy   TEWEN  =       479.52511092
  -Hartree energ DENC   =     -1192.67257343
  -exchange      EXHF   =         0.00000000
  -V(xc)+E(xc)   XCENC  =        61.06005740
  PAW double counting   =       697.41634940     -699.85762974
  entropy T*S    EENTRO =        -0.00000000
  eigenvalues    EBANDS =      -292.73487201
  atomic energy  EATOM  =       914.70769713
  Solvation  Ediel_sol  =         0.00000000
  ---------------------------------------------------
  free energy    TOTEN  =       -32.54063568 eV

  energy without entropy =      -32.54063568  energy(sigma->0) =      -32.54063568


--------------------------------------------------------------------------------------------------------




--------------------------------------- Iteration      1(   6)  ---------------------------------------


    POTLOK:  cpu time   26.7064: real time   26.7442
    SETDIJ:  cpu time    0.0547: real time    0.0547
     EDDAV:  cpu time   11.0003: real time   11.0174
       DOS:  cpu time    0.0006: real time    0.0006
    CHARGE:  cpu time    3.4526: real time    3.4576
    MIXING:  cpu time    0.5457: real time    0.5557
    --------------------------------------------
      LOOP:  cpu time   41.7603: real time   41.8302

 eigenvalue-minimisations  :    28
 total energy-change (2. order) : 0.3617224E+01  (-0.1318640E+01)
 number of electron      16.0000000 magnetization 
 augmentation part        0.1352781 magnetization 

 Broyden mixing:
  rms(total) = 0.21389E+01    rms(broyden)= 0.21389E+01
  rms(prec ) = 0.21410E+01
  weight for this iteration     100.00

 eigenvalues of (default mixing * dielectric matrix)
  average eigenvalue GAMMA=   0.1528
  0.1528

 Free energy of the ion-electron system (eV)
  ---------------------------------------------------
  alpha Z        PSCENC =         0.01522463
  Ewald energy   TEWEN  =       479.52511092
  -Hartree energ DENC   =     -1239.66133912
  -exchange      EXHF   =         0.00000000
  -V(xc)+E(xc)   XCENC  =        63.57078938
  PAW double counting   =      1618.47283330    -1621.53105221
  entropy T*S    EENTRO =        -0.00000000
  eigenvalues    EBANDS =      -244.02267603
  atomic energy  EATOM  =       914.70769713
  Solvation  Ediel_sol  =         0.00000000
  ---------------------------------------------------
  free energy    TOTEN  =       -28.92341199 eV

  energy without entropy =      -28.92341199  energy(sigma->0) =      -28.92341199


--------------------------------------------------------------------------------------------------------




--------------------------------------- Iteration      1(   7)  ---------------------------------------


    POTLOK:  cpu time   26.7774: real time   26.8144
    SETDIJ:  cpu time    0.0514: real time    0.0514
     EDDAV:  cpu time   13.0735: real time   13.0937
       DOS:  cpu time    0.0043: real time    0.0043
    CHARGE:  cpu time    3.4330: real time    3.4379
    MIXING:  cpu time    0.7067: real time    0.7076
    --------------------------------------------
      LOOP:  cpu time   44.0463: real time   44.1094

 eigenvalue-minimisations  :    36
 total energy-change (2. order) : 0.3394522E-01  (-0.5726879E-01)
 number of electron      16.0000000 magnetization 
 augmentation part        0.1335751 magnetization 

 Broyden mixing:
  rms(total) = 0.20792E+01    rms(broyden)= 0.20792E+01
  rms(prec ) = 0.20808E+01
  weight for this iteration     100.00

 eigenvalues of (default mixing * dielectric matrix)
  average eigenvalue GAMMA=   0.7271
  0.7271  0.7271

 Free energy of the ion-electron system (eV)
  ---------------------------------------------------
  alpha Z        PSCENC =         0.01522463
  Ewald energy   TEWEN  =       479.52511092
  -Hartree energ DENC   =     -1242.47899708
  -exchange      EXHF   =         0.00000000
  -V(xc)+E(xc)   XCENC  =        63.71446179
  PAW double counting   =      1971.86432720    -1974.92661164
  entropy T*S    EENTRO =        -0.00000000
  eigenvalues    EBANDS =      -241.31067972
  atomic energy  EATOM  =       914.70769713
  Solvation  Ediel_sol  =         0.00000000
  ---------------------------------------------------
  free energy    TOTEN  =       -28.88946677 eV

  energy without entropy =      -28.88946677  energy(sigma->0) =      -28.88946677


--------------------------------------------------------------------------------------------------------




--------------------------------------- Iteration      1(   8)  ---------------------------------------


    POTLOK:  cpu time   26.7432: real time   26.7811
    SETDIJ:  cpu time    0.0472: real time    0.0472
     EDDAV:  cpu time   10.9955: real time   11.0126
       DOS:  cpu time    0.0139: real time    0.0139
    CHARGE:  cpu time    3.4676: real time    3.4752
    MIXING:  cpu time    0.6512: real time    0.6522
    --------------------------------------------
      LOOP:  cpu time   41.9185: real time   41.9821

 eigenvalue-minimisations  :    28
 total energy-change (2. order) : 0.5853226E-01  (-0.5787013E-02)
 number of electron      16.0000000 magnetization 
 augmentation part        0.1388641 magnetization 

 Broyden mixing:
  rms(total) = 0.14142E+01    rms(broyden)= 0.14142E+01
  rms(prec ) = 0.14163E+01
  weight for this iteration     100.00

 eigenvalues of (default mixing * dielectric matrix)
  average eigenvalue GAMMA=   1.3130
  2.1399  0.8996  0.8996

 Free energy of the ion-electron system (eV)
  ---------------------------------------------------
  alpha Z        PSCENC =         0.01522463
  Ewald energy   TEWEN  =       479.52511092
  -Hartree energ DENC   =     -1243.07583228
  -exchange      EXHF   =         0.00000000
  -V(xc)+E(xc)   XCENC  =        63.73391772
  PAW double counting   =      2874.12188881    -2877.15308185
  entropy T*S    EENTRO =        -0.00000000
  eigenvalues    EBANDS =      -240.70585958
  atomic energy  EATOM  =       914.70769713
  Solvation  Ediel_sol  =         0.00000000
  ---------------------------------------------------
  free energy    TOTEN  =       -28.83093450 eV

  energy without entropy =      -28.83093450  energy(sigma->0) =      -28.83093450


--------------------------------------------------------------------------------------------------------




--------------------------------------- Iteration      1(   9)  ---------------------------------------


    POTLOK:  cpu time   26.7563: real time   26.7947
    SETDIJ:  cpu time    0.0528: real time    0.0529
     EDDAV:  cpu time   13.1404: real time   13.1608
       DOS:  cpu time    0.0081: real time    0.0081
    CHARGE:  cpu time    3.4343: real time    3.4392
    MIXING:  cpu time    0.6526: real time    0.6536
    --------------------------------------------
      LOOP:  cpu time   44.0445: real time   44.1092

 eigenvalue-minimisations  :    36
 total energy-change (2. order) : 0.2993046E+00  (-0.2217962E-01)
 number of electron      16.0000000 magnetization 
 augmentation part        0.1333921 magnetization 

 Broyden mixing:
  rms(total) = 0.53219E+00    rms(broyden)= 0.53219E+00
  rms(prec ) = 0.53306E+00
  weight for this iteration     100.00

 eigenvalues of (default mixing * dielectric matrix)
  average eigenvalue GAMMA=   1.2794
  2.1635  1.2737  0.8403  0.8403

 Free energy of the ion-electron system (eV)
  ---------------------------------------------------
  alpha Z        PSCENC =         0.01522463
  Ewald energy   TEWEN  =       479.52511092
  -Hartree energ DENC   =     -1258.64697893
  -exchange      EXHF   =         0.00000000
  -V(xc)+E(xc)   XCENC  =        64.56240387
  PAW double counting   =      7004.50662496    -7007.55753783
  entropy T*S    EENTRO =        -0.00000000
  eigenvalues    EBANDS =      -225.64417462
  atomic energy  EATOM  =       914.70769713
  Solvation  Ediel_sol  =         0.00000000
  ---------------------------------------------------
  free energy    TOTEN  =       -28.53162986 eV

  energy without entropy =      -28.53162986  energy(sigma->0) =      -28.53162986


--------------------------------------------------------------------------------------------------------




--------------------------------------- Iteration      1(  10)  ---------------------------------------


    POTLOK:  cpu time   26.8601: real time   26.8976
    SETDIJ:  cpu time    0.0564: real time    0.0564
     EDDAV:  cpu time   13.1881: real time   13.2087
       DOS:  cpu time    0.0015: real time    0.0015
    CHARGE:  cpu time    3.4575: real time    3.4625
    MIXING:  cpu time    0.6868: real time    0.6878
    --------------------------------------------
      LOOP:  cpu time   44.2504: real time   44.3145

 eigenvalue-minimisations  :    36
 total energy-change (2. order) : 0.2276844E-01  (-0.1584595E-02)
 number of electron      16.0000000 magnetization 
 augmentation part        0.1315057 magnetization 

 Broyden mixing:
  rms(total) = 0.39268E+00    rms(broyden)= 0.39268E+00
  rms(prec ) = 0.39335E+00
  weight for this iteration     100.00

 eigenvalues of (default mixing * dielectric matrix)
  average eigenvalue GAMMA=   1.6327
  2.7058  2.7058  0.9248  0.9248  0.9024

 Free energy of the ion-electron system (eV)
  ---------------------------------------------------
  alpha Z        PSCENC =         0.01522463
  Ewald energy   TEWEN  =       479.52511092
  -Hartree energ DENC   =     -1261.06697719
  -exchange      EXHF   =         0.00000000
  -V(xc)+E(xc)   XCENC  =        64.64958963
  PAW double counting   =      6985.30897662    -6988.33882758
  entropy T*S    EENTRO =        -0.00000000
  eigenvalues    EBANDS =      -223.30965559
  atomic energy  EATOM  =       914.70769713
  Solvation  Ediel_sol  =         0.00000000
  ---------------------------------------------------
  free energy    TOTEN  =       -28.50886142 eV

  energy without entropy =      -28.50886142  energy(sigma->0) =      -28.50886142


--------------------------------------------------------------------------------------------------------




--------------------------------------- Iteration      1(  11)  ---------------------------------------


    POTLOK:  cpu time   27.0058: real time   27.0467
    SETDIJ:  cpu time    0.0572: real time    0.0572
     EDDAV:  cpu time    9.9466: real time    9.9630
       DOS:  cpu time    0.0032: real time    0.0032
    CHARGE:  cpu time    3.5033: real time    3.5082
    MIXING:  cpu time    0.9671: real time    0.9684
    --------------------------------------------
      LOOP:  cpu time   41.4832: real time   41.5467

 eigenvalue-minimisations  :    24
 total energy-change (2. order) : 0.2552842E-01  (-0.7904821E-02)
 number of electron      16.0000000 magnetization 
 augmentation part        0.1252635 magnetization 

 Broyden mixing:
  rms(total) = 0.12322E+00    rms(broyden)= 0.12322E+00
  rms(prec ) = 0.12354E+00
  weight for this iteration     100.00

 eigenvalues of (default mixing * dielectric matrix)
  average eigenvalue GAMMA=   1.6550
  4.1382  2.4097  0.8881  0.8881  0.9321  0.6738

 Free energy of the ion-electron system (eV)
  ---------------------------------------------------
  alpha Z        PSCENC =         0.01522463
  Ewald energy   TEWEN  =       479.52511092
  -Hartree energ DENC   =     -1267.26967846
  -exchange      EXHF   =         0.00000000
  -V(xc)+E(xc)   XCENC  =        64.85386616
  PAW double counting   =      6408.78918263    -6411.77630587
  entropy T*S    EENTRO =        -0.00000000
  eigenvalues    EBANDS =      -217.32843014
  atomic energy  EATOM  =       914.70769713
  Solvation  Ediel_sol  =         0.00000000
  ---------------------------------------------------
  free energy    TOTEN  =       -28.48333300 eV

  energy without entropy =      -28.48333300  energy(sigma->0) =      -28.48333300


--------------------------------------------------------------------------------------------------------




--------------------------------------- Iteration      1(  12)  ---------------------------------------


    POTLOK:  cpu time   26.8497: real time   26.8873
    SETDIJ:  cpu time    0.0585: real time    0.0586
     EDDAV:  cpu time   13.1775: real time   13.1979
       DOS:  cpu time    0.0050: real time    0.0050
    CHARGE:  cpu time    3.4535: real time    3.4585
    MIXING:  cpu time    0.7410: real time    0.7421
    --------------------------------------------
      LOOP:  cpu time   44.2852: real time   44.3494

 eigenvalue-minimisations  :    36
 total energy-change (2. order) :-0.1829729E-02  (-0.1219236E-02)
 number of electron      16.0000000 magnetization 
 augmentation part        0.1242008 magnetization 

 Broyden mixing:
  rms(total) = 0.21915E+00    rms(broyden)= 0.21915E+00
  rms(prec ) = 0.21936E+00
  weight for this iteration     100.00

 eigenvalues of (default mixing * dielectric matrix)
  average eigenvalue GAMMA=   1.5276
  3.6990  2.4937  0.9570  0.9570  0.8353  0.8353  0.9157

 Free energy of the ion-electron system (eV)
  ---------------------------------------------------
  alpha Z        PSCENC =         0.01522463
  Ewald energy   TEWEN  =       479.52511092
  -Hartree energ DENC   =     -1269.44827486
  -exchange      EXHF   =         0.00000000
  -V(xc)+E(xc)   XCENC  =        64.92467004
  PAW double counting   =      6335.73891364    -6338.71749912
  entropy T*S    EENTRO =        -0.00000000
  eigenvalues    EBANDS =      -215.23100512
  atomic energy  EATOM  =       914.70769713
  Solvation  Ediel_sol  =         0.00000000
  ---------------------------------------------------
  free energy    TOTEN  =       -28.48516273 eV

  energy without entropy =      -28.48516273  energy(sigma->0) =      -28.48516273


--------------------------------------------------------------------------------------------------------




--------------------------------------- Iteration      1(  13)  ---------------------------------------


    POTLOK:  cpu time   26.9348: real time   26.9720
    SETDIJ:  cpu time    0.0590: real time    0.0590
     EDDAV:  cpu time   12.0785: real time   12.0969
       DOS:  cpu time    0.0041: real time    0.0041
    CHARGE:  cpu time    3.5394: real time    3.5444
    MIXING:  cpu time    0.7490: real time    0.7502
    --------------------------------------------
      LOOP:  cpu time   43.3648: real time   43.4266

 eigenvalue-minimisations  :    32
 total energy-change (2. order) :-0.3486605E-02  (-0.1846370E-03)
 number of electron      16.0000000 magnetization 
 augmentation part        0.1250978 magnetization 

 Broyden mixing:
  rms(total) = 0.14966E+00    rms(broyden)= 0.14966E+00
  rms(prec ) = 0.14983E+00
  weight for this iteration     100.00

 eigenvalues of (default mixing * dielectric matrix)
  average eigenvalue GAMMA=   1.5077
  3.2511  2.4494  1.5988  0.9383  0.9383  1.0956  0.8951  0.8951

 Free energy of the ion-electron system (eV)
  ---------------------------------------------------
  alpha Z        PSCENC =         0.01522463
  Ewald energy   TEWEN  =       479.52511092
  -Hartree energ DENC   =     -1269.06528303
  -exchange      EXHF   =         0.00000000
  -V(xc)+E(xc)   XCENC  =        64.89549875
  PAW double counting   =      6354.48174190    -6357.46682206
  entropy T*S    EENTRO =        -0.00000000
  eigenvalues    EBANDS =      -215.58181758
  atomic energy  EATOM  =       914.70769713
  Solvation  Ediel_sol  =         0.00000000
  ---------------------------------------------------
  free energy    TOTEN  =       -28.48864933 eV

  energy without entropy =      -28.48864933  energy(sigma->0) =      -28.48864933


--------------------------------------------------------------------------------------------------------




--------------------------------------- Iteration      1(  14)  ---------------------------------------


    POTLOK:  cpu time   26.9855: real time   27.0229
    SETDIJ:  cpu time    0.0598: real time    0.0598
     EDDAV:  cpu time   12.1536: real time   12.1720
       DOS:  cpu time    0.0029: real time    0.0029
    CHARGE:  cpu time    3.6547: real time    3.6597
    MIXING:  cpu time    0.7649: real time    0.7661
    --------------------------------------------
      LOOP:  cpu time   43.6215: real time   43.6835

 eigenvalue-minimisations  :    32
 total energy-change (2. order) :-0.6224419E-02  (-0.3465553E-03)
 number of electron      16.0000000 magnetization 
 augmentation part        0.1261812 magnetization 

 Broyden mixing:
  rms(total) = 0.33722E-01    rms(broyden)= 0.33722E-01
  rms(prec ) = 0.34001E-01
  weight for this iteration     100.00

 eigenvalues of (default mixing * dielectric matrix)
  average eigenvalue GAMMA=   1.6446
  3.3677  3.3677  2.3708  0.9466  0.9466  1.0573  1.0573  0.8439  0.8439

 Free energy of the ion-electron system (eV)
  ---------------------------------------------------
  alpha Z        PSCENC =         0.01522463
  Ewald energy   TEWEN  =       479.52511092
  -Hartree energ DENC   =     -1268.76244783
  -exchange      EXHF   =         0.00000000
  -V(xc)+E(xc)   XCENC  =        64.86187564
  PAW double counting   =      6434.68101621    -6437.67450643
  entropy T*S    EENTRO =        -0.00000000
  eigenvalues    EBANDS =      -215.84884403
  atomic energy  EATOM  =       914.70769713
  Solvation  Ediel_sol  =         0.00000000
  ---------------------------------------------------
  free energy    TOTEN  =       -28.49487375 eV

  energy without entropy =      -28.49487375  energy(sigma->0) =      -28.49487375


--------------------------------------------------------------------------------------------------------




--------------------------------------- Iteration      1(  15)  ---------------------------------------


    POTLOK:  cpu time   26.9726: real time   27.0097
    SETDIJ:  cpu time    0.0535: real time    0.0535
     EDDAV:  cpu time   11.0779: real time   11.0952
       DOS:  cpu time    0.0008: real time    0.0008
    CHARGE:  cpu time    3.4871: real time    3.4919
    MIXING:  cpu time    0.8698: real time    0.8712
    --------------------------------------------
      LOOP:  cpu time   42.4617: real time   42.5224

 eigenvalue-minimisations  :    28
 total energy-change (2. order) :-0.5817491E-02  (-0.1245430E-03)
 number of electron      16.0000000 magnetization 
 augmentation part        0.1265763 magnetization 

 Broyden mixing:
  rms(total) = 0.16948E-01    rms(broyden)= 0.16948E-01
  rms(prec ) = 0.17174E-01
  weight for this iteration     100.00

 eigenvalues of (default mixing * dielectric matrix)
  average eigenvalue GAMMA=   1.5585
  3.2580  3.2580  2.4871  1.1466  1.1466  0.9407  0.9407  0.8310  0.8310  0.7455

 Free energy of the ion-electron system (eV)
  ---------------------------------------------------
  alpha Z        PSCENC =         0.01522463
  Ewald energy   TEWEN  =       479.52511092
  -Hartree energ DENC   =     -1268.98547783
  -exchange      EXHF   =         0.00000000
  -V(xc)+E(xc)   XCENC  =        64.84407529
  PAW double counting   =      6451.25712919    -6454.25300521
  entropy T*S    EENTRO =        -0.00000000
  eigenvalues    EBANDS =      -215.61144537
  atomic energy  EATOM  =       914.70769713
  Solvation  Ediel_sol  =         0.00000000
  ---------------------------------------------------
  free energy    TOTEN  =       -28.50069124 eV

  energy without entropy =      -28.50069124  energy(sigma->0) =      -28.50069124


--------------------------------------------------------------------------------------------------------




--------------------------------------- Iteration      1(  16)  ---------------------------------------


    POTLOK:  cpu time   27.0077: real time   27.0455
    SETDIJ:  cpu time    0.0561: real time    0.0562
     EDDAV:  cpu time   14.3688: real time   14.3908
       DOS:  cpu time    0.0046: real time    0.0046
    CHARGE:  cpu time    3.5234: real time    3.5287
    MIXING:  cpu time    0.9411: real time    0.9425
    --------------------------------------------
      LOOP:  cpu time   45.9018: real time   45.9683

 eigenvalue-minimisations  :    40
 total energy-change (2. order) :-0.2181423E-02  (-0.1764162E-04)
 number of electron      16.0000000 magnetization 
 augmentation part        0.1265106 magnetization 

 Broyden mixing:
  rms(total) = 0.15113E-01    rms(broyden)= 0.15113E-01
  rms(prec ) = 0.15266E-01
  weight for this iteration     100.00

 eigenvalues of (default mixing * dielectric matrix)
  average eigenvalue GAMMA=   1.7678
  5.1725  2.5466  2.5466  2.1430  1.5090  0.9391  0.9391  0.9358  0.9358  0.8889
  0.8889

 Free energy of the ion-electron system (eV)
  ---------------------------------------------------
  alpha Z        PSCENC =         0.01522463
  Ewald energy   TEWEN  =       479.52511092
  -Hartree energ DENC   =     -1269.26884070
  -exchange      EXHF   =         0.00000000
  -V(xc)+E(xc)   XCENC  =        64.84649399
  PAW double counting   =      6466.43898240    -6469.43346220
  entropy T*S    EENTRO =        -0.00000000
  eigenvalues    EBANDS =      -215.33407884
  atomic energy  EATOM  =       914.70769713
  Solvation  Ediel_sol  =         0.00000000
  ---------------------------------------------------
  free energy    TOTEN  =       -28.50287267 eV

  energy without entropy =      -28.50287267  energy(sigma->0) =      -28.50287267


--------------------------------------------------------------------------------------------------------




--------------------------------------- Iteration      1(  17)  ---------------------------------------


    POTLOK:  cpu time   27.0228: real time   27.0607
    SETDIJ:  cpu time    0.0744: real time    0.0744
     EDDAV:  cpu time   13.3050: real time   13.3251
       DOS:  cpu time    0.0015: real time    0.0015
    CHARGE:  cpu time    3.5106: real time    3.5156
    MIXING:  cpu time    1.0737: real time    1.0752
    --------------------------------------------
      LOOP:  cpu time   44.9881: real time   45.0526

 eigenvalue-minimisations  :    36
 total energy-change (2. order) :-0.3811275E-02  (-0.7998524E-04)
 number of electron      16.0000000 magnetization 
 augmentation part        0.1261351 magnetization 

 Broyden mixing:
  rms(total) = 0.22221E-02    rms(broyden)= 0.22221E-02
  rms(prec ) = 0.23976E-02
  weight for this iteration     100.00

 eigenvalues of (default mixing * dielectric matrix)
  average eigenvalue GAMMA=   1.8881
  6.5945  3.0290  2.3714  2.3714  1.8078  0.9400  0.9400  1.1372  0.9344  0.9344
  0.7985  0.7985

 Free energy of the ion-electron system (eV)
  ---------------------------------------------------
  alpha Z        PSCENC =         0.01522463
  Ewald energy   TEWEN  =       479.52511092
  -Hartree energ DENC   =     -1269.86820127
  -exchange      EXHF   =         0.00000000
  -V(xc)+E(xc)   XCENC  =        64.85260614
  PAW double counting   =      6470.79321976    -6473.78558515
  entropy T*S    EENTRO =        -0.00000000
  eigenvalues    EBANDS =      -214.74675610
  atomic energy  EATOM  =       914.70769713
  Solvation  Ediel_sol  =         0.00000000
  ---------------------------------------------------
  free energy    TOTEN  =       -28.50668394 eV

  energy without entropy =      -28.50668394  energy(sigma->0) =      -28.50668394


--------------------------------------------------------------------------------------------------------




--------------------------------------- Iteration      1(  18)  ---------------------------------------


    POTLOK:  cpu time   27.0453: real time   27.0828
    SETDIJ:  cpu time    0.0593: real time    0.0594
     EDDAV:  cpu time   14.3929: real time   14.4168
       DOS:  cpu time    0.0007: real time    0.0007
    CHARGE:  cpu time    3.4598: real time    3.4646
    MIXING:  cpu time    1.0655: real time    1.0671
    --------------------------------------------
      LOOP:  cpu time   46.0235: real time   46.0913

 eigenvalue-minimisations  :    40
 total energy-change (2. order) :-0.1336100E-02  (-0.8227365E-05)
 number of electron      16.0000000 magnetization 
 augmentation part        0.1261982 magnetization 

 Broyden mixing:
  rms(total) = 0.35263E-02    rms(broyden)= 0.35263E-02
  rms(prec ) = 0.35747E-02
  weight for this iteration     100.00

 eigenvalues of (default mixing * dielectric matrix)
  average eigenvalue GAMMA=   1.8596
  6.8133  3.1045  2.4127  2.4127  1.4367  1.4367  0.9387  0.9387  1.0844  1.0844
  0.8517  0.8517  0.8083

 Free energy of the ion-electron system (eV)
  ---------------------------------------------------
  alpha Z        PSCENC =         0.01522463
  Ewald energy   TEWEN  =       479.52511092
  -Hartree energ DENC   =     -1269.91143520
  -exchange      EXHF   =         0.00000000
  -V(xc)+E(xc)   XCENC  =        64.84937905
  PAW double counting   =      6471.24529747    -6474.23725734
  entropy T*S    EENTRO =        -0.00000000
  eigenvalues    EBANDS =      -214.70203671
  atomic energy  EATOM  =       914.70769713
  Solvation  Ediel_sol  =         0.00000000
  ---------------------------------------------------
  free energy    TOTEN  =       -28.50802004 eV

  energy without entropy =      -28.50802004  energy(sigma->0) =      -28.50802004


--------------------------------------------------------------------------------------------------------




--------------------------------------- Iteration      1(  19)  ---------------------------------------


    POTLOK:  cpu time   27.0321: real time   27.0694
    SETDIJ:  cpu time    0.0557: real time    0.0558
     EDDAV:  cpu time   14.4338: real time   14.4569
       DOS:  cpu time    0.0007: real time    0.0007
    CHARGE:  cpu time    3.5151: real time    3.5202
    MIXING:  cpu time    1.0555: real time    1.0571
    --------------------------------------------
      LOOP:  cpu time   46.0929: real time   46.1601

 eigenvalue-minimisations  :    40
 total energy-change (2. order) :-0.4131108E-03  (-0.1028574E-05)
 number of electron      16.0000000 magnetization 
 augmentation part        0.1262340 magnetization 

 Broyden mixing:
  rms(total) = 0.58817E-02    rms(broyden)= 0.58817E-02
  rms(prec ) = 0.59042E-02
  weight for this iteration     100.00

 eigenvalues of (default mixing * dielectric matrix)
  average eigenvalue GAMMA=   1.7540
  6.8119  3.1192  2.3935  2.3935  1.4983  1.4983  0.9382  0.9382  1.0459  1.0459
  0.8485  0.8485  0.7370  0.4391

 Free energy of the ion-electron system (eV)
  ---------------------------------------------------
  alpha Z        PSCENC =         0.01522463
  Ewald energy   TEWEN  =       479.52511092
  -Hartree energ DENC   =     -1269.89789130
  -exchange      EXHF   =         0.00000000
  -V(xc)+E(xc)   XCENC  =        64.84753843
  PAW double counting   =      6471.78364165    -6474.77586289
  entropy T*S    EENTRO =        -0.00000000
  eigenvalues    EBANDS =      -214.71389173
  atomic energy  EATOM  =       914.70769713
  Solvation  Ediel_sol  =         0.00000000
  ---------------------------------------------------
  free energy    TOTEN  =       -28.50843315 eV

  energy without entropy =      -28.50843315  energy(sigma->0) =      -28.50843315


--------------------------------------------------------------------------------------------------------




--------------------------------------- Iteration      1(  20)  ---------------------------------------


    POTLOK:  cpu time   27.0626: real time   27.1063
    SETDIJ:  cpu time    0.0518: real time    0.0518
     EDDAV:  cpu time   14.4715: real time   14.4935
       DOS:  cpu time    0.0025: real time    0.0025
    CHARGE:  cpu time    3.4865: real time    3.4914
    MIXING:  cpu time    1.1709: real time    1.1735
    --------------------------------------------
      LOOP:  cpu time   46.2458: real time   46.3190

 eigenvalue-minimisations  :    40
 total energy-change (2. order) :-0.2673921E-03  (-0.3464147E-06)
 number of electron      16.0000000 magnetization 
 augmentation part        0.1262526 magnetization 

 Broyden mixing:
  rms(total) = 0.55626E-02    rms(broyden)= 0.55626E-02
  rms(prec ) = 0.55839E-02
  weight for this iteration     100.00

 eigenvalues of (default mixing * dielectric matrix)
  average eigenvalue GAMMA=   2.0435
  8.1754  4.7358  2.6522  2.6522  2.3832  1.4991  0.9387  0.9387  1.2125  1.0485
  1.0485  0.8224  0.8224  0.9166  0.8072

 Free energy of the ion-electron system (eV)
  ---------------------------------------------------
  alpha Z        PSCENC =         0.01522463
  Ewald energy   TEWEN  =       479.52511092
  -Hartree energ DENC   =     -1269.88767700
  -exchange      EXHF   =         0.00000000
  -V(xc)+E(xc)   XCENC  =        64.84634910
  PAW double counting   =      6467.96503288    -6470.95724207
  entropy T*S    EENTRO =        -0.00000000
  eigenvalues    EBANDS =      -214.72319615
  atomic energy  EATOM  =       914.70769713
  Solvation  Ediel_sol  =         0.00000000
  ---------------------------------------------------
  free energy    TOTEN  =       -28.50870054 eV

  energy without entropy =      -28.50870054  energy(sigma->0) =      -28.50870054


--------------------------------------------------------------------------------------------------------




--------------------------------------- Iteration      1(  21)  ---------------------------------------


    POTLOK:  cpu time   26.9285: real time   26.9658
    SETDIJ:  cpu time    0.0492: real time    0.0493
     EDDAV:  cpu time   12.3487: real time   12.3671
       DOS:  cpu time    0.0017: real time    0.0017
    CHARGE:  cpu time    3.4362: real time    3.4407
    MIXING:  cpu time    1.3367: real time    1.3387
    --------------------------------------------
      LOOP:  cpu time   44.1011: real time   44.1633

 eigenvalue-minimisations  :    32
 total energy-change (2. order) :-0.1239012E-02  (-0.1290003E-04)
 number of electron      16.0000000 magnetization 
 augmentation part        0.1261681 magnetization 

 Broyden mixing:
  rms(total) = 0.20946E-02    rms(broyden)= 0.20946E-02
  rms(prec ) = 0.20987E-02
  weight for this iteration     100.00

 eigenvalues of (default mixing * dielectric matrix)
  average eigenvalue GAMMA=   1.9642
  8.1657  4.7422  2.6695  2.6695  2.3533  1.1510  1.1510  0.9368  0.9368  1.1837
  1.1837  0.8239  0.8239  0.9675  0.8346  0.8346

 Free energy of the ion-electron system (eV)
  ---------------------------------------------------
  alpha Z        PSCENC =         0.01522463
  Ewald energy   TEWEN  =       479.52511092
  -Hartree energ DENC   =     -1269.97173922
  -exchange      EXHF   =         0.00000000
  -V(xc)+E(xc)   XCENC  =        64.84675184
  PAW double counting   =      6457.79693650    -6460.78899845
  entropy T*S    EENTRO =        -0.00000000
  eigenvalues    EBANDS =      -214.64092291
  atomic energy  EATOM  =       914.70769713
  Solvation  Ediel_sol  =         0.00000000
  ---------------------------------------------------
  free energy    TOTEN  =       -28.50993956 eV

  energy without entropy =      -28.50993956  energy(sigma->0) =      -28.50993956


--------------------------------------------------------------------------------------------------------




--------------------------------------- Iteration      1(  22)  ---------------------------------------


    POTLOK:  cpu time   27.0158: real time   27.0527
    SETDIJ:  cpu time    0.0556: real time    0.0556
     EDDAV:  cpu time   14.4694: real time   14.4914
       DOS:  cpu time    0.0039: real time    0.0039
    CHARGE:  cpu time    3.5493: real time    3.5543
    MIXING:  cpu time    1.2081: real time    1.2100
    --------------------------------------------
      LOOP:  cpu time   46.3022: real time   46.3681

 eigenvalue-minimisations  :    40
 total energy-change (2. order) :-0.5556523E-04  (-0.4269720E-06)
 number of electron      16.0000000 magnetization 
 augmentation part        0.1261422 magnetization 

 Broyden mixing:
  rms(total) = 0.22833E-02    rms(broyden)= 0.22833E-02
  rms(prec ) = 0.22876E-02
  weight for this iteration     100.00

 eigenvalues of (default mixing * dielectric matrix)
  average eigenvalue GAMMA=   2.0528
  8.6923  5.0891  2.8798  2.8798  2.0964  2.0964  1.5341  1.4455  0.9393  0.9393
  1.1010  1.1010  0.8237  0.8237  0.9409  0.8112  0.7034

 Free energy of the ion-electron system (eV)
  ---------------------------------------------------
  alpha Z        PSCENC =         0.01522463
  Ewald energy   TEWEN  =       479.52511092
  -Hartree energ DENC   =     -1269.98237139
  -exchange      EXHF   =         0.00000000
  -V(xc)+E(xc)   XCENC  =        64.84723250
  PAW double counting   =      6459.63764974    -6462.62962610
  entropy T*S    EENTRO =        -0.00000000
  eigenvalues    EBANDS =      -214.63091257
  atomic energy  EATOM  =       914.70769713
  Solvation  Ediel_sol  =         0.00000000
  ---------------------------------------------------
  free energy    TOTEN  =       -28.50999512 eV

  energy without entropy =      -28.50999512  energy(sigma->0) =      -28.50999512


--------------------------------------------------------------------------------------------------------




--------------------------------------- Iteration      1(  23)  ---------------------------------------


    POTLOK:  cpu time   26.9444: real time   26.9815
    SETDIJ:  cpu time    0.0573: real time    0.0573
     EDDAV:  cpu time   12.3084: real time   12.3270
       DOS:  cpu time    0.0002: real time    0.0002
    CHARGE:  cpu time    3.5577: real time    3.5629
    MIXING:  cpu time    1.2580: real time    1.2601
    --------------------------------------------
      LOOP:  cpu time   44.1261: real time   44.1890

 eigenvalue-minimisations  :    32
 total energy-change (2. order) :-0.1265066E-03  (-0.2673149E-06)
 number of electron      16.0000000 magnetization 
 augmentation part        0.1261666 magnetization 

 Broyden mixing:
  rms(total) = 0.16354E-02    rms(broyden)= 0.16354E-02
  rms(prec ) = 0.16371E-02
  weight for this iteration     100.00

 eigenvalues of (default mixing * dielectric matrix)
  average eigenvalue GAMMA=   2.0259
  8.7859  5.3769  2.7798  2.7798  2.8260  2.1589  1.2678  1.2678  0.9388  0.9388
  1.1369  1.0684  1.0684  0.8295  0.8295  0.7837  0.8148  0.8148

 Free energy of the ion-electron system (eV)
  ---------------------------------------------------
  alpha Z        PSCENC =         0.01522463
  Ewald energy   TEWEN  =       479.52511092
  -Hartree energ DENC   =     -1269.97426881
  -exchange      EXHF   =         0.00000000
  -V(xc)+E(xc)   XCENC  =        64.84647323
  PAW double counting   =      6460.39438400    -6463.38623289
  entropy T*S    EENTRO =        -0.00000000
  eigenvalues    EBANDS =      -214.63850985
  atomic energy  EATOM  =       914.70769713
  Solvation  Ediel_sol  =         0.00000000
  ---------------------------------------------------
  free energy    TOTEN  =       -28.51012163 eV

  energy without entropy =      -28.51012163  energy(sigma->0) =      -28.51012163


--------------------------------------------------------------------------------------------------------




--------------------------------------- Iteration      1(  24)  ---------------------------------------


    POTLOK:  cpu time   26.9114: real time   26.9522
    SETDIJ:  cpu time    0.0550: real time    0.0550
     EDDAV:  cpu time   12.3756: real time   12.3966
       DOS:  cpu time    0.0002: real time    0.0002
    CHARGE:  cpu time    3.5080: real time    3.5128
    MIXING:  cpu time    1.3992: real time    1.4014
    --------------------------------------------
      LOOP:  cpu time   44.2494: real time   44.3182

 eigenvalue-minimisations  :    32
 total energy-change (2. order) :-0.7603247E-04  (-0.7954697E-07)
 number of electron      16.0000000 magnetization 
 augmentation part        0.1261753 magnetization 

 Broyden mixing:
  rms(total) = 0.58929E-03    rms(broyden)= 0.58929E-03
  rms(prec ) = 0.59084E-03
  weight for this iteration     100.00

 eigenvalues of (default mixing * dielectric matrix)
  average eigenvalue GAMMA=   2.0501
  8.9370  5.7164  3.1534  2.5558  2.5558  2.4538  1.5589  1.5589  0.9392  0.9392
  1.1670  1.1670  1.0308  1.0308  0.8162  0.8162  0.9288  0.8136  0.8136

 Free energy of the ion-electron system (eV)
  ---------------------------------------------------
  alpha Z        PSCENC =         0.01522463
  Ewald energy   TEWEN  =       479.52511092
  -Hartree energ DENC   =     -1269.96863234
  -exchange      EXHF   =         0.00000000
  -V(xc)+E(xc)   XCENC  =        64.84610296
  PAW double counting   =      6462.96155270    -6465.95364521
  entropy T*S    EENTRO =        -0.00000000
  eigenvalues    EBANDS =      -214.64360845
  atomic energy  EATOM  =       914.70769713
  Solvation  Ediel_sol  =         0.00000000
  ---------------------------------------------------
  free energy    TOTEN  =       -28.51019766 eV

  energy without entropy =      -28.51019766  energy(sigma->0) =      -28.51019766


--------------------------------------------------------------------------------------------------------




--------------------------------------- Iteration      1(  25)  ---------------------------------------


    POTLOK:  cpu time   26.8730: real time   26.9105
    SETDIJ:  cpu time    0.0497: real time    0.0498
     EDDAV:  cpu time   12.3071: real time   12.3257
       DOS:  cpu time    0.0076: real time    0.0076
    CHARGE:  cpu time    3.5994: real time    3.6043
    MIXING:  cpu time    1.6002: real time    1.6028
    --------------------------------------------
      LOOP:  cpu time   44.4370: real time   44.5006

 eigenvalue-minimisations  :    32
 total energy-change (2. order) :-0.3075799E-04  (-0.2292927E-07)
 number of electron      16.0000000 magnetization 
 augmentation part        0.1261765 magnetization 

 Broyden mixing:
  rms(total) = 0.20951E-03    rms(broyden)= 0.20951E-03
  rms(prec ) = 0.21182E-03
  weight for this iteration     100.00

 eigenvalues of (default mixing * dielectric matrix)
  average eigenvalue GAMMA=   2.1028
  9.1816  6.3193  3.9554  2.7156  2.7156  2.0646  2.0646  1.4442  1.4442  0.9389
  0.9389  1.0264  1.0264  1.0980  0.8202  0.8202  0.9495  0.9495  0.7916  0.7916

 Free energy of the ion-electron system (eV)
  ---------------------------------------------------
  alpha Z        PSCENC =         0.01522463
  Ewald energy   TEWEN  =       479.52511092
  -Hartree energ DENC   =     -1269.96826055
  -exchange      EXHF   =         0.00000000
  -V(xc)+E(xc)   XCENC  =        64.84594937
  PAW double counting   =      6461.89410858    -6464.88618861
  entropy T*S    EENTRO =        -0.00000000
  eigenvalues    EBANDS =      -214.64386989
  atomic energy  EATOM  =       914.70769713
  Solvation  Ediel_sol  =         0.00000000
  ---------------------------------------------------
  free energy    TOTEN  =       -28.51022842 eV

  energy without entropy =      -28.51022842  energy(sigma->0) =      -28.51022842


--------------------------------------------------------------------------------------------------------




--------------------------------------- Iteration      1(  26)  ---------------------------------------


    POTLOK:  cpu time   26.9227: real time   26.9600
    SETDIJ:  cpu time    0.0605: real time    0.0605
     EDDAV:  cpu time   10.1346: real time   10.1501
       DOS:  cpu time    0.0041: real time    0.0041
    CHARGE:  cpu time    3.4834: real time    3.4883
    MIXING:  cpu time    1.6377: real time    1.6402
    --------------------------------------------
      LOOP:  cpu time   42.2430: real time   42.3032

 eigenvalue-minimisations  :    24
 total energy-change (2. order) :-0.2952946E-04  (-0.2141312E-07)
 number of electron      16.0000000 magnetization 
 augmentation part        0.1261772 magnetization 

 Broyden mixing:
  rms(total) = 0.48569E-03    rms(broyden)= 0.48569E-03
  rms(prec ) = 0.48617E-03
  weight for this iteration     100.00

 eigenvalues of (default mixing * dielectric matrix)
  average eigenvalue GAMMA=   2.0825
  9.2461  6.4394  4.1630  2.7617  2.4246  2.4246  2.3469  1.4452  1.4452  0.9390
  0.9390  1.0752  1.0752  1.0553  1.0553  0.8145  0.8145  0.9071  0.8220  0.8220
  0.7163

 Free energy of the ion-electron system (eV)
  ---------------------------------------------------
  alpha Z        PSCENC =         0.01522463
  Ewald energy   TEWEN  =       479.52511092
  -Hartree energ DENC   =     -1269.96916600
  -exchange      EXHF   =         0.00000000
  -V(xc)+E(xc)   XCENC  =        64.84591278
  PAW double counting   =      6462.42354399    -6465.41563785
  entropy T*S    EENTRO =        -0.00000000
  eigenvalues    EBANDS =      -214.64294356
  atomic energy  EATOM  =       914.70769713
  Solvation  Ediel_sol  =         0.00000000
  ---------------------------------------------------
  free energy    TOTEN  =       -28.51025795 eV

  energy without entropy =      -28.51025795  energy(sigma->0) =      -28.51025795


--------------------------------------------------------------------------------------------------------




--------------------------------------- Iteration      1(  27)  ---------------------------------------


    POTLOK:  cpu time   26.8615: real time   26.9079
    SETDIJ:  cpu time    0.0526: real time    0.0526
     EDDAV:  cpu time    7.9421: real time    7.9541
       DOS:  cpu time    0.0045: real time    0.0045
    CHARGE:  cpu time    3.4739: real time    3.4789
    MIXING:  cpu time    1.7660: real time    1.7715
    --------------------------------------------
      LOOP:  cpu time   40.1005: real time   40.1694

 eigenvalue-minimisations  :    16
 total energy-change (2. order) :-0.6760213E-05  (-0.4502066E-08)
 number of electron      16.0000000 magnetization 
 augmentation part        0.1261748 magnetization 

 Broyden mixing:
  rms(total) = 0.17516E-03    rms(broyden)= 0.17516E-03
  rms(prec ) = 0.17560E-03
  weight for this iteration     100.00

 eigenvalues of (default mixing * dielectric matrix)
  average eigenvalue GAMMA=   2.0846
  9.3349  6.5520  4.5249  2.7172  2.7172  2.5863  2.0413  1.4697  1.4697  1.5046
  0.9391  0.9391  1.0908  1.0908  1.0228  1.0228  0.8168  0.8168  0.8281  0.8281
  0.8190  0.7288

 Free energy of the ion-electron system (eV)
  ---------------------------------------------------
  alpha Z        PSCENC =         0.01522463
  Ewald energy   TEWEN  =       479.52511092
  -Hartree energ DENC   =     -1269.97207040
  -exchange      EXHF   =         0.00000000
  -V(xc)+E(xc)   XCENC  =        64.84602770
  PAW double counting   =      6462.16364788    -6465.15571816
  entropy T*S    EENTRO =        -0.00000000
  eigenvalues    EBANDS =      -214.64018440
  atomic energy  EATOM  =       914.70769713
  Solvation  Ediel_sol  =         0.00000000
  ---------------------------------------------------
  free energy    TOTEN  =       -28.51026471 eV

  energy without entropy =      -28.51026471  energy(sigma->0) =      -28.51026471


--------------------------------------------------------------------------------------------------------




--------------------------------------- Iteration      1(  28)  ---------------------------------------


    POTLOK:  cpu time   26.8964: real time   26.9335
    SETDIJ:  cpu time    0.0569: real time    0.0569
     EDDAV:  cpu time    7.9103: real time    7.9235
       DOS:  cpu time    0.0037: real time    0.0037
    CHARGE:  cpu time    3.4658: real time    3.4706
    MIXING:  cpu time    1.8836: real time    1.8863
    --------------------------------------------
      LOOP:  cpu time   40.2166: real time   40.2745

 eigenvalue-minimisations  :    16
 total energy-change (2. order) :-0.5387723E-05  (-0.7461058E-08)
 number of electron      16.0000000 magnetization 
 augmentation part        0.1261708 magnetization 

 Broyden mixing:
  rms(total) = 0.77044E-04    rms(broyden)= 0.77044E-04
  rms(prec ) = 0.77440E-04
  weight for this iteration     100.00

 eigenvalues of (default mixing * dielectric matrix)
  average eigenvalue GAMMA=   2.0998
  9.4978  6.7607  4.9568  2.9362  2.9362  2.7347  2.1798  1.4627  1.4627  1.6516
  0.9391  0.9391  1.0533  1.0533  1.1164  1.1164  0.8209  0.8209  0.8454  0.8454
  0.7662  0.6997  0.6997

 Free energy of the ion-electron system (eV)
  ---------------------------------------------------
  alpha Z        PSCENC =         0.01522463
  Ewald energy   TEWEN  =       479.52511092
  -Hartree energ DENC   =     -1269.97513931
  -exchange      EXHF   =         0.00000000
  -V(xc)+E(xc)   XCENC  =        64.84615388
  PAW double counting   =      6462.00509016    -6464.99714618
  entropy T*S    EENTRO =        -0.00000000
  eigenvalues    EBANDS =      -214.63726133
  atomic energy  EATOM  =       914.70769713
  Solvation  Ediel_sol  =         0.00000000
  ---------------------------------------------------
  free energy    TOTEN  =       -28.51027010 eV

  energy without entropy =      -28.51027010  energy(sigma->0) =      -28.51027010


--------------------------------------------------------------------------------------------------------




--------------------------------------- Iteration      1(  29)  ---------------------------------------


    POTLOK:  cpu time   26.8829: real time   26.9203
    SETDIJ:  cpu time    0.0910: real time    0.0911
     EDDAV:  cpu time    7.9778: real time    7.9901
       DOS:  cpu time    0.0030: real time    0.0030
    CHARGE:  cpu time    3.6632: real time    3.6700
    MIXING:  cpu time    1.6999: real time    1.7027
    --------------------------------------------
      LOOP:  cpu time   40.3178: real time   40.3771

 eigenvalue-minimisations  :    16
 total energy-change (2. order) :-0.3469097E-05  (-0.3345898E-08)
 number of electron      16.0000000 magnetization 
 augmentation part        0.1261708 magnetization 

 Broyden mixing:
  rms(total) = 0.10945E-03    rms(broyden)= 0.10945E-03
  rms(prec ) = 0.10964E-03
  weight for this iteration     100.00

 eigenvalues of (default mixing * dielectric matrix)
  average eigenvalue GAMMA=   2.1208
  9.5213  7.0425  5.1896  3.3721  2.6998  2.5707  2.5707  2.2120  1.4208  1.4208
  0.9392  0.9392  1.0957  1.0957  1.0975  1.0557  1.0557  0.8228  0.8228  0.8896
  0.8896  0.7659  0.7290  0.6814

 Free energy of the ion-electron system (eV)
  ---------------------------------------------------
  alpha Z        PSCENC =         0.01522463
  Ewald energy   TEWEN  =       479.52511092
  -Hartree energ DENC   =     -1269.97557257
  -exchange      EXHF   =         0.00000000
  -V(xc)+E(xc)   XCENC  =        64.84616313
  PAW double counting   =      6462.01112623    -6465.00317728
  entropy T*S    EENTRO =        -0.00000000
  eigenvalues    EBANDS =      -214.63684576
  atomic energy  EATOM  =       914.70769713
  Solvation  Ediel_sol  =         0.00000000
  ---------------------------------------------------
  free energy    TOTEN  =       -28.51027357 eV

  energy without entropy =      -28.51027357  energy(sigma->0) =      -28.51027357


--------------------------------------------------------------------------------------------------------




--------------------------------------- Iteration      1(  30)  ---------------------------------------


    POTLOK:  cpu time   26.8909: real time   26.9275
    SETDIJ:  cpu time    0.0553: real time    0.0553
     EDDAV:  cpu time   10.1370: real time   10.1524
       DOS:  cpu time    0.0012: real time    0.0012
    CHARGE:  cpu time    3.4205: real time    3.4254
    MIXING:  cpu time    2.0643: real time    2.0672
    --------------------------------------------
      LOOP:  cpu time   42.5692: real time   42.6292

 eigenvalue-minimisations  :    24
 total energy-change (2. order) :-0.1756439E-05  (-0.2316257E-08)
 number of electron      16.0000000 magnetization 
 augmentation part        0.1261709 magnetization 

 Broyden mixing:
  rms(total) = 0.56320E-04    rms(broyden)= 0.56320E-04
  rms(prec ) = 0.56512E-04
  weight for this iteration     100.00

 eigenvalues of (default mixing * dielectric matrix)
  average eigenvalue GAMMA=   2.1189
  9.5927  7.1892  5.3274  3.8233  2.7408  2.7408  2.4721  2.2831  1.4493  1.4493
  1.2701  0.9391  0.9391  1.0517  1.0517  1.0481  1.0481  0.9789  0.8433  0.8433
  0.8393  0.8393  0.7718  0.7718  0.6679

 Free energy of the ion-electron system (eV)
  ---------------------------------------------------
  alpha Z        PSCENC =         0.01522463
  Ewald energy   TEWEN  =       479.52511092
  -Hartree energ DENC   =     -1269.97500301
  -exchange      EXHF   =         0.00000000
  -V(xc)+E(xc)   XCENC  =        64.84613417
  PAW double counting   =      6462.02151191    -6465.01356880
  entropy T*S    EENTRO =        -0.00000000
  eigenvalues    EBANDS =      -214.63738228
  atomic energy  EATOM  =       914.70769713
  Solvation  Ediel_sol  =         0.00000000
  ---------------------------------------------------
  free energy    TOTEN  =       -28.51027532 eV

  energy without entropy =      -28.51027532  energy(sigma->0) =      -28.51027532


--------------------------------------------------------------------------------------------------------




--------------------------------------- Iteration      1(  31)  ---------------------------------------


    POTLOK:  cpu time   26.9016: real time   26.9388
    SETDIJ:  cpu time    0.0604: real time    0.0604
     EDDAV:  cpu time    8.0238: real time    8.0380
       DOS:  cpu time    0.0029: real time    0.0029
    CHARGE:  cpu time    3.4874: real time    3.4923
    MIXING:  cpu time    1.9647: real time    1.9678
    --------------------------------------------
      LOOP:  cpu time   40.4407: real time   40.5003

 eigenvalue-minimisations  :    16
 total energy-change (2. order) :-0.1022638E-05  (-0.2210570E-08)
 number of electron      16.0000000 magnetization 
 augmentation part        0.1261714 magnetization 

 Broyden mixing:
  rms(total) = 0.10432E-04    rms(broyden)= 0.10432E-04
  rms(prec ) = 0.10642E-04
  weight for this iteration     100.00

 eigenvalues of (default mixing * dielectric matrix)
  average eigenvalue GAMMA=   2.1185
  9.6355  7.3076  5.4572  4.0041  2.7667  2.5508  2.5508  2.3317  1.8914  1.4604
  1.4604  1.1751  1.1751  0.9391  0.9391  1.0261  1.0261  0.9397  0.9397  0.8433
  0.8433  0.7954  0.7954  0.7701  0.7701  0.6874

 Free energy of the ion-electron system (eV)
  ---------------------------------------------------
  alpha Z        PSCENC =         0.01522463
  Ewald energy   TEWEN  =       479.52511092
  -Hartree energ DENC   =     -1269.97423016
  -exchange      EXHF   =         0.00000000
  -V(xc)+E(xc)   XCENC  =        64.84609526
  PAW double counting   =      6462.02818980    -6465.02024782
  entropy T*S    EENTRO =        -0.00000000
  eigenvalues    EBANDS =      -214.63811611
  atomic energy  EATOM  =       914.70769713
  Solvation  Ediel_sol  =         0.00000000
  ---------------------------------------------------
  free energy    TOTEN  =       -28.51027634 eV

  energy without entropy =      -28.51027634  energy(sigma->0) =      -28.51027634


--------------------------------------------------------------------------------------------------------




--------------------------------------- Iteration      1(  32)  ---------------------------------------


    POTLOK:  cpu time   26.9720: real time   27.0114
    SETDIJ:  cpu time    0.0512: real time    0.0512
     EDDAV:  cpu time    7.9975: real time    8.0092
       DOS:  cpu time    0.0005: real time    0.0005
    CHARGE:  cpu time    3.6176: real time    3.6224
    MIXING:  cpu time    2.0074: real time    2.0106
    --------------------------------------------
      LOOP:  cpu time   40.6462: real time   40.7053

 eigenvalue-minimisations  :    16
 total energy-change (2. order) :-0.4797082E-06  (-0.1854152E-08)
 number of electron      16.0000000 magnetization 
 augmentation part        0.1261716 magnetization 

 Broyden mixing:
  rms(total) = 0.12731E-04    rms(broyden)= 0.12731E-04
  rms(prec ) = 0.12784E-04
  weight for this iteration     100.00

 eigenvalues of (default mixing * dielectric matrix)
  average eigenvalue GAMMA=   2.1334
  9.6475  7.5616  5.5797  4.3913  2.8973  2.8973  2.5706  2.1939  2.1939  1.4601
  1.4601  1.2207  1.2207  0.9391  0.9391  1.0399  1.0399  0.9341  0.9341  0.8655
  0.8655  0.8946  0.7891  0.7891  0.8014  0.8014  0.6742

 Free energy of the ion-electron system (eV)
  ---------------------------------------------------
  alpha Z        PSCENC =         0.01522463
  Ewald energy   TEWEN  =       479.52511092
  -Hartree energ DENC   =     -1269.97402609
  -exchange      EXHF   =         0.00000000
  -V(xc)+E(xc)   XCENC  =        64.84608172
  PAW double counting   =      6461.98353136    -6464.97558773
  entropy T*S    EENTRO =        -0.00000000
  eigenvalues    EBANDS =      -214.63830877
  atomic energy  EATOM  =       914.70769713
  Solvation  Ediel_sol  =         0.00000000
  ---------------------------------------------------
  free energy    TOTEN  =       -28.51027682 eV

  energy without entropy =      -28.51027682  energy(sigma->0) =      -28.51027682


--------------------------------------------------------------------------------------------------------




--------------------------------------- Iteration      1(  33)  ---------------------------------------


    POTLOK:  cpu time   26.9884: real time   27.0257
    SETDIJ:  cpu time    0.0491: real time    0.0491
     EDDAV:  cpu time    8.0435: real time    8.0555
       DOS:  cpu time    0.0011: real time    0.0011
    CHARGE:  cpu time    3.4274: real time    3.4320
    MIXING:  cpu time    2.1441: real time    2.1474
    --------------------------------------------
      LOOP:  cpu time   40.6535: real time   40.7109

 eigenvalue-minimisations  :    16
 total energy-change (2. order) :-0.2896134E-06  (-0.1700132E-08)
 number of electron      16.0000000 magnetization 
 augmentation part        0.1261719 magnetization 

 Broyden mixing:
  rms(total) = 0.11343E-04    rms(broyden)= 0.11343E-04
  rms(prec ) = 0.11371E-04
  weight for this iteration     100.00

 eigenvalues of (default mixing * dielectric matrix)
  average eigenvalue GAMMA=   2.1418
  9.6659  7.7228  5.7057  4.5769  2.9661  2.9661  2.5016  2.4112  2.4112  1.4627
  1.4627  1.3682  1.3682  0.9391  0.9391  1.1895  1.0364  1.0364  1.0232  0.8416
  0.8416  0.7968  0.7968  0.8533  0.8533  0.7711  0.7711  0.6903

 Free energy of the ion-electron system (eV)
  ---------------------------------------------------
  alpha Z        PSCENC =         0.01522463
  Ewald energy   TEWEN  =       479.52511092
  -Hartree energ DENC   =     -1269.97381665
  -exchange      EXHF   =         0.00000000
  -V(xc)+E(xc)   XCENC  =        64.84607193
  PAW double counting   =      6462.00796261    -6465.00002034
  entropy T*S    EENTRO =        -0.00000000
  eigenvalues    EBANDS =      -214.63850734
  atomic energy  EATOM  =       914.70769713
  Solvation  Ediel_sol  =         0.00000000
  ---------------------------------------------------
  free energy    TOTEN  =       -28.51027711 eV

  energy without entropy =      -28.51027711  energy(sigma->0) =      -28.51027711


--------------------------------------------------------------------------------------------------------




--------------------------------------- Iteration      1(  34)  ---------------------------------------


    POTLOK:  cpu time   26.9312: real time   26.9688
    SETDIJ:  cpu time    0.0504: real time    0.0504
     EDDAV:  cpu time   10.2892: real time   10.3049
       DOS:  cpu time    0.0052: real time    0.0052
    CHARGE:  cpu time    3.5037: real time    3.5087
    MIXING:  cpu time    2.3848: real time    2.3884
    --------------------------------------------
      LOOP:  cpu time   43.1644: real time   43.2263

 eigenvalue-minimisations  :    24
 total energy-change (2. order) :-0.2177437E-06  (-0.1573465E-08)
 number of electron      16.0000000 magnetization 
 augmentation part        0.1261719 magnetization 

 Broyden mixing:
  rms(total) = 0.17525E-05    rms(broyden)= 0.17525E-05
  rms(prec ) = 0.18154E-05
  weight for this iteration     100.00

 eigenvalues of (default mixing * dielectric matrix)
  average eigenvalue GAMMA=   2.1706
  9.6854  7.9514  6.1009  4.7348  3.6207  2.7140  2.7140  2.4677  2.1741  2.1741
  1.4639  1.4639  1.2358  1.2358  0.9391  0.9391  1.0488  1.0488  1.0005  0.9104
  0.9104  0.8503  0.8503  0.7908  0.7908  0.8801  0.8058  0.7571  0.6881

 Free energy of the ion-electron system (eV)
  ---------------------------------------------------
  alpha Z        PSCENC =         0.01522463
  Ewald energy   TEWEN  =       479.52511092
  -Hartree energ DENC   =     -1269.97386294
  -exchange      EXHF   =         0.00000000
  -V(xc)+E(xc)   XCENC  =        64.84607371
  PAW double counting   =      6462.01252530    -6465.00458163
  entropy T*S    EENTRO =        -0.00000000
  eigenvalues    EBANDS =      -214.63846446
  atomic energy  EATOM  =       914.70769713
  Solvation  Ediel_sol  =         0.00000000
  ---------------------------------------------------
  free energy    TOTEN  =       -28.51027733 eV

  energy without entropy =      -28.51027733  energy(sigma->0) =      -28.51027733


--------------------------------------------------------------------------------------------------------




--------------------------------------- Iteration      1(  35)  ---------------------------------------


    POTLOK:  cpu time   26.9342: real time   26.9720
    SETDIJ:  cpu time    0.0477: real time    0.0477
     EDDAV:  cpu time    8.0949: real time    8.1070
       DOS:  cpu time    0.0015: real time    0.0015
    --------------------------------------------
      LOOP:  cpu time   35.0783: real time   35.1281

 eigenvalue-minimisations  :    16
 total energy-change (2. order) :-0.9002042E-07  (-0.1541480E-08)
 number of electron      16.0000000 magnetization 
 augmentation part        0.1261719 magnetization 

 Free energy of the ion-electron system (eV)
  ---------------------------------------------------
  alpha Z        PSCENC =         0.01522463
  Ewald energy   TEWEN  =       479.52511092
  -Hartree energ DENC   =     -1269.97389501
  -exchange      EXHF   =         0.00000000
  -V(xc)+E(xc)   XCENC  =        64.84607489
  PAW double counting   =      6462.00814607    -6465.00020276
  entropy T*S    EENTRO =        -0.00000000
  eigenvalues    EBANDS =      -214.63843330
  atomic energy  EATOM  =       914.70769713
  Solvation  Ediel_sol  =         0.00000000
  ---------------------------------------------------
  free energy    TOTEN  =       -28.51027742 eV

  energy without entropy =      -28.51027742  energy(sigma->0) =      -28.51027742


--------------------------------------------------------------------------------------------------------




 average (electrostatic) potential at core
  the test charge radii are     0.4325  0.5955
  (the norm of the test charge is              1.0000)
       1 -47.3505       2 -47.3492       3 -47.3491       4 -47.3492       5-119.2546
       6-119.2539
 
 
 
 E-fermi :  -6.7954     XC(G=0):  -0.0327     alpha+bet : -0.0063


 k-point     1 :       0.0000    0.0000    0.0000
  band No.  band energies     occupation 
      1     -25.0273      2.00000
      2     -25.0150      2.00000
      3     -12.8150      2.00000
      4     -12.7995      2.00000
      5      -9.0970      2.00000
      6      -8.7970      2.00000
      7      -6.9138      2.00000
      8      -6.8547      2.00000
      9      -0.8885      0.00000
     10      -0.5654      0.00000
     11       0.0002      0.00000
     12       0.1028      0.00000


--------------------------------------------------------------------------------------------------------


 soft charge-density along one line, spin component            1
         0         1         2         3         4         5         6         7         8         9
 total charge-density along one line
 
 pseudopotential strength for first ion, spin component:            1
 -2.533  -5.387  -0.006  -0.008   0.000
 -5.387 -11.428  -0.013  -0.018   0.000
 -0.006  -0.013  -1.382   0.012  -0.000
 -0.008  -0.018   0.012  -1.373  -0.000
  0.000   0.000  -0.000  -0.000  -1.390
 total augmentation occupancy for first ion, spin component:            1
  4.234  -0.793   0.223   0.300  -0.007
 -0.793   0.178  -0.044  -0.056   0.001
  0.223  -0.044   0.017   0.013  -0.000
  0.300  -0.056   0.013   0.023  -0.000
 -0.007   0.001  -0.000  -0.000   0.011


------------------------ aborting loop because EDIFF is reached ----------------------------------------



 DIPCOR: dipole corrections for dipol
 direction  1 min pos   630, direction  2 min pos   632, direction  3 min pos   556,
 dipolmoment          -0.014843      0.000685      0.018830 electrons x Angstroem
 Tr[quadrupol]         4.005264

 energy correction for charged system         0.000000 eV
 dipol+quadrupol energy correction            0.000000 eV
 added-field ion interaction          0.000000 eV  (added to PSCEN)

 
  *************** adding dipol energy to TOTEN NOW **************** 
    CHARGE:  cpu time    3.4564: real time    3.4617
    FORLOC:  cpu time    1.1730: real time    1.1743
    FORNL :  cpu time    0.3873: real time    0.3878
    STRESS:  cpu time    5.8356: real time    5.8438
    FORCOR:  cpu time   25.4977: real time   25.5324
    FORHAR:  cpu time    7.6986: real time    7.7098
    MIXING:  cpu time    2.2863: real time    2.2899
    OFIELD:  cpu time    0.0000: real time    0.0000

  FORCE on cell =-STRESS in cart. coord.  units (eV):
  Direction    XX          YY          ZZ          XY          YZ          ZX
  --------------------------------------------------------------------------------------
  Alpha Z     0.01522     0.01522     0.01522
  Ewald     -49.97021   333.65070   195.84409     2.44723     1.82609    -3.93538
  Hartree   323.41528   579.40217   367.15654     0.57158     0.13807    -0.70074
  E(xc)     -74.47442   -73.79397   -73.36287     0.01103     0.00903    -0.01785
  Local    -597.72926 -1191.12210  -808.14798    -2.26195    -1.27575     3.36686
  n-local   -50.98294   -45.48676   -39.78044     0.09078     0.11801    -0.17882
  augment     2.23957     1.27067     0.69971    -0.01589    -0.01209     0.02476
  Kinetic   447.48244   396.85713   358.59033    -0.83374    -0.78777     1.42485
  Fock        0.00000     0.00000     0.00000     0.00000     0.00000     0.00000
  -------------------------------------------------------------------------------------
  Total      -0.00432     0.79306     1.01461     0.00903     0.01559    -0.01633
  in kB      -0.00016     0.02964     0.03791     0.00034     0.00058    -0.00061
  external pressure =        0.02 kB  Pullay stress =        0.00 kB


 VOLUME and BASIS-vectors are now :
 -----------------------------------------------------------------------------
  energy-cutoff  :     2000.00
  volume of cell :    42875.00
      direct lattice vectors                 reciprocal lattice vectors
    35.000000000  0.000000000  0.000000000     0.028571429  0.000000000  0.000000000
     0.000000000 35.000000000  0.000000000     0.000000000  0.028571429  0.000000000
     0.000000000  0.000000000 35.000000000     0.000000000  0.000000000  0.028571429

  length of vectors
    35.000000000 35.000000000 35.000000000     0.028571429  0.028571429  0.028571429


 FORCES acting on ions
    electron-ion (+dipol)            ewald-force                    non-local-force                 convergence-correction
 -----------------------------------------------------------------------------------------------
   -.169E+01 0.582E+02 0.741E+02   0.186E+01 -.634E+02 -.814E+02   -.160E+00 0.501E+01 0.697E+01   0.661E-07 -.255E-05 -.253E-05
   0.132E+01 0.590E+02 -.735E+02   -.146E+01 -.643E+02 0.808E+02   0.124E+00 0.509E+01 -.692E+01   -.311E-07 -.259E-05 0.250E-05
   -.273E+01 -.551E+02 0.763E+02   0.300E+01 0.600E+02 -.838E+02   -.259E+00 -.471E+01 0.717E+01   0.131E-06 0.234E-05 -.262E-05
   -.116E+01 -.618E+02 -.713E+02   0.128E+01 0.675E+02 0.783E+02   -.112E+00 -.537E+01 -.670E+01   0.788E-07 0.256E-05 0.239E-05
   0.275E+00 -.703E+01 -.457E+00   -.467E+00 0.601E+02 0.776E+00   0.191E+00 -.526E+02 -.320E+00   0.717E-07 -.855E-05 -.267E-06
   0.232E+01 0.693E+01 -.294E+01   -.422E+01 -.599E+02 0.542E+01   0.189E+01 0.525E+02 -.245E+01   0.114E-06 0.658E-05 -.166E-06
 -----------------------------------------------------------------------------------------------
   -.167E+01 0.720E-01 0.224E+01   -.888E-15 0.142E-13 -.195E-13   0.167E+01 -.720E-01 -.224E+01   0.431E-06 -.219E-05 -.699E-06
 
 
 POSITION                                       TOTAL-FORCE (eV/Angst)
 -----------------------------------------------------------------------------------
      0.01761      0.64046     34.23865         0.007531     -0.238033     -0.336937
     34.98662      0.63163      0.75455        -0.006396     -0.239219      0.335776
      0.02970      5.18138     34.21499         0.012449      0.219473     -0.347726
      0.01365      5.25327      0.72944         0.005494      0.256576      0.324177
      0.00000      1.22721      0.00000        -0.000932      0.408565     -0.001081
      0.00000      4.62721      0.00000        -0.018146     -0.407363      0.025791
 -----------------------------------------------------------------------------------
    total drift:                               -0.000005      0.000009      0.000002


--------------------------------------------------------------------------------------------------------



  FREE ENERGIE OF THE ION-ELECTRON SYSTEM (eV)
  ---------------------------------------------------
  free  energy   TOTEN  =       -28.51027702 eV

  energy  without entropy=      -28.51027702  energy(sigma->0) =      -28.51027702
 


--------------------------------------------------------------------------------------------------------


    POTLOK:  cpu time   27.0055: real time   27.0428


--------------------------------------------------------------------------------------------------------


 writing wavefunctions
     LOOP+:  cpu time 2374.8298: real time 2380.1788
    4ORBIT:  cpu time    0.0000: real time    0.0000

 total amount of memory used by VASP MPI-rank0  4207116. kBytes
=======================================================================

   base      :      30000. kBytes
   nonl-proj :     121908. kBytes
   fftplans  :    1475802. kBytes
   grid      :    2553282. kBytes
   one-center:          1. kBytes
   wavefun   :      26123. kBytes
 
  
  
 General timing and accounting informations for this job:
 ========================================================
  
                  Total CPU time used (sec):     3385.790
                            User time (sec):     3249.776
                          System time (sec):      136.015
                         Elapsed time (sec):     3394.994
  
                   Maximum memory used (kb):     5233544.
                   Average memory used (kb):           0.
  
                          Minor page faults:     78325338
                          Major page faults:           88
                 Voluntary context switches:         5716
