 vasp.6.1.2 22Jul20 (build Jan  6 2021 09:55:43) gamma-only                      
 executed on             LinuxPGI date 2021.03.02  14:35:53
 running on   32 total cores
 distrk:  each k-point on   32 cores,    1 groups
 distr:  one band on NCORE=   8 cores,    4 groups


--------------------------------------------------------------------------------------------------------


 INCAR:
 POTCAR:    PAW_PBE H_h 06Feb2004                 
 POTCAR:    PAW_PBE O_h 06Feb2004                 
 POTCAR:    PAW_PBE H_h 06Feb2004                 
   VRHFIN =H: ultrasoft test                                                                        
   LEXCH  = PE                                                                                      
   EATOM  =    12.4884 eV,    0.9179 Ry                                                             
                                                                                                    
   TITEL  = PAW_PBE H_h 06Feb2004                                                                   
   LULTRA =        F    use ultrasoft PP ?                                                          
   IUNSCR =        0    unscreen: 0-lin 1-nonlin 2-no                                               
   RPACOR =    0.000    partial core radius                                                         
   POMASS =    1.000; ZVAL   =    1.000    mass and valenz                                          
   RCORE  =    0.800    outmost cutoff radius                                                       
   RWIGS  =    0.700; RWIGS  =    0.370    wigner-seitz radius (au A)                               
   ENMAX  =  700.000; ENMIN  =  350.000 eV                                                          
   RCLOC  =    0.701    cutoff for local pot                                                        
   LCOR   =        T    correct aug charges                                                         
   LPAW   =        T    paw PP                                                                      
   EAUG   = 1000.000                                                                                
   RMAX   =    0.819    core radius for proj-oper                                                   
   RAUG   =    1.000    factor for augmentation sphere                                              
   RDEP   =    0.817    radius for radial grids                                                     
   RDEPT  =    0.817    core radius for aug-charge                                                  
                                                                                                    
   Atomic configuration                                                                             
    2 entries                                                                                       
     n  l   j            E        occ.                                                              
     1  0  0.50        -6.4927   1.0000                                                             
     2  1  0.50        -3.4015   0.0000                                                             
   Description                                                                                      
     l       E           TYP  RCUT    TYP  RCUT                                                     
     0     -6.4927493     23  0.800                                                                 
     0      6.8029130     23  0.800                                                                 
     1     -6.8029130     23  0.800                                                                 
  local pseudopotential read in
  atomic valenz-charges read in
  non local Contribution for L=            0  read in
    real space projection operators read in
  non local Contribution for L=            0  read in
    real space projection operators read in
  non local Contribution for L=            1  read in
    real space projection operators read in
    PAW grid and wavefunctions read in
 
   number of l-projection  operators is LMAX  =            3
   number of lm-projection operators is LMMAX =            5
 
 POTCAR:    PAW_PBE O_h 06Feb2004                 
   VRHFIN =O: s2p4                                                                                  
   LEXCH  = PE                                                                                      
   EATOM  =   432.3788 eV,   31.7789 Ry                                                             
                                                                                                    
   TITEL  = PAW_PBE O_h 06Feb2004                                                                   
   LULTRA =        F    use ultrasoft PP ?                                                          
   IUNSCR =        1    unscreen: 0-lin 1-nonlin 2-no                                               
   RPACOR =    0.800    partial core radius                                                         
   POMASS =   16.000; ZVAL   =    6.000    mass and valenz                                          
   RCORE  =    1.100    outmost cutoff radius                                                       
   RWIGS  =    1.400; RWIGS  =    0.741    wigner-seitz radius (au A)                               
   ENMAX  =  700.000; ENMIN  =  500.000 eV                                                          
   ICORE  =        2    local potential                                                             
   LCOR   =        T    correct aug charges                                                         
   LPAW   =        T    paw PP                                                                      
   EAUG   =  888.804                                                                                
   DEXC   =    0.000                                                                                
   RMAX   =    1.128    core radius for proj-oper                                                   
   RAUG   =    1.300    factor for augmentation sphere                                              
   RDEP   =    1.125    radius for radial grids                                                     
   RDEPT  =    1.088    core radius for aug-charge                                                  
                                                                                                    
   Atomic configuration                                                                             
    4 entries                                                                                       
     n  l   j            E        occ.                                                              
     1  0  0.50      -514.6923   2.0000                                                             
     2  0  0.50       -23.9615   2.0000                                                             
     2  1  0.50        -9.0305   4.0000                                                             
     3  2  1.50        -9.5241   0.0000                                                             
   Description                                                                                      
     l       E           TYP  RCUT    TYP  RCUT                                                     
     0    -23.9615319     23  1.100                                                                 
     0    -25.3221145     23  1.100                                                                 
     1     -9.0304911     23  1.100                                                                 
     1     -5.4802209     23  1.100                                                                 
     2     -9.5240782      7  1.100                                                                 
  local pseudopotential read in
  partial core-charges read in
  partial kinetic energy density read in
  atomic valenz-charges read in
  non local Contribution for L=            0  read in
    real space projection operators read in
  non local Contribution for L=            0  read in
    real space projection operators read in
  non local Contribution for L=            1  read in
    real space projection operators read in
  non local Contribution for L=            1  read in
    real space projection operators read in
    PAW grid and wavefunctions read in
 
   number of l-projection  operators is LMAX  =            4
   number of lm-projection operators is LMMAX =            8
 
  PAW_PBE H_h 06Feb2004                 :
 energy of atom  1       EATOM=  -12.4884
 kinetic energy error for atom=    0.0001 (will be added to EATOM!!)
  PAW_PBE O_h 06Feb2004                 :
 energy of atom  2       EATOM= -432.3788
 kinetic energy error for atom=    0.0016 (will be added to EATOM!!)
 
 
 POSCAR:  H  O
  positions in cartesian coordinates
  No initial velocities read in
 exchange correlation table for  LEXCH =        8
   RHO(1)=    0.500       N(1)  =     2000
   RHO(2)=  100.500       N(2)  =     4000
 


--------------------------------------------------------------------------------------------------------


 ion  position               nearest neighbor table
   1  0.001  0.018  0.978-   5 0.96
   2  1.000  0.018  0.022-   5 0.96
   3  0.001  0.122  0.978-   6 0.96
   4  0.000  0.124  0.021-   6 0.96
   5  0.000  0.035  0.000-   1 0.96   2 0.96
   6  0.000  0.106  0.000-   4 0.96   3 0.96
 
  LATTYP: Found a simple cubic cell.
 ALAT       =    35.0000000000
  
  Lattice vectors:
  
 A1 = (  35.0000000000,   0.0000000000,   0.0000000000)
 A2 = (   0.0000000000,  35.0000000000,   0.0000000000)
 A3 = (   0.0000000000,   0.0000000000,  35.0000000000)


Analysis of symmetry for initial positions (statically):
=====================================================================
 Subroutine PRICEL returns:
 Original cell was already a primitive cell.
 

 Routine SETGRP: Setting up the symmetry group for a 
 simple cubic supercell.


 Subroutine GETGRP returns: Found  1 space group operations
 (whereof  1 operations were pure point group operations)
 out of a pool of 48 trial point group operations.


The static configuration has the point symmetry C_1 .


Analysis of symmetry for dynamics (positions and initial velocities):
=====================================================================
 Subroutine PRICEL returns:
 Original cell was already a primitive cell.
 

 Routine SETGRP: Setting up the symmetry group for a 
 simple cubic supercell.


 Subroutine GETGRP returns: Found  1 space group operations
 (whereof  1 operations were pure point group operations)
 out of a pool of 48 trial point group operations.


The dynamic configuration has the point symmetry C_1 .


 Subroutine INISYM returns: Found  1 space group operations
 (whereof  1 operations are pure point group operations),
 and found     1 'primitive' translations


----------------------------------------------------------------------------------------

                                     Primitive cell                                     

  volume of cell :   42875.0000

  direct lattice vectors                    reciprocal lattice vectors
    35.000000000  0.000000000  0.000000000     0.028571429  0.000000000  0.000000000
     0.000000000 35.000000000  0.000000000     0.000000000  0.028571429  0.000000000
     0.000000000  0.000000000 35.000000000     0.000000000  0.000000000  0.028571429

  length of vectors
    35.000000000 35.000000000 35.000000000     0.028571429  0.028571429  0.028571429

  position of ions in fractional coordinates (direct lattice)
     0.000503079  0.018298976  0.978247097
     0.999617776  0.018046666  0.021558586
     0.000848682  0.122325070  0.977571084
     0.000390051  0.124379243  0.020841195
     0.000000000  0.035063029  0.000000000
     0.000000000  0.106491600  0.000000000

  ion indices of the primitive-cell ions
   primitive index   ion index
                 1           1
                 2           2
                 3           3
                 4           4
                 5           5
                 6           6

----------------------------------------------------------------------------------------

 
 
 KPOINTS: automatic mesh                          

Automatic generation of k-mesh.
Space group operators:
 irot       det(A)        alpha          n_x          n_y          n_z        tau_x        tau_y        tau_z
    1     1.000000     0.000000     1.000000     0.000000     0.000000     0.000000     0.000000     0.000000
 
 Subroutine IBZKPT returns following result:
 ===========================================
 
 Found      1 irreducible k-points:
 
 Following reciprocal coordinates:
            Coordinates               Weight
  0.000000  0.000000  0.000000      1.000000
 
 Following cartesian coordinates:
            Coordinates               Weight
  0.000000  0.000000  0.000000      1.000000
 


--------------------------------------------------------------------------------------------------------




 Dimension of arrays:
   k-points           NKPTS =      1   k-points in BZ     NKDIM =      1   number of bands    NBANDS=     12
   number of dos      NEDOS =    301   number of ions     NIONS =      6
   non local maximal  LDIM  =      4   non local SUM 2l+1 LMDIM =      8
   total plane-waves  NPLWV = ******
   max r-space proj   IRMAX =      1   max aug-charges    IRDMAX=  23028
   dimension x,y,z NGX =   512 NGY =  512 NGZ =  512
   dimension x,y,z NGXF=  1024 NGYF= 1024 NGZF= 1024
   support grid    NGXF=  1024 NGYF= 1024 NGZF= 1024
   ions per type =               4   2
   NGX,Y,Z   is equivalent  to a cutoff of  24.32, 24.32, 24.32 a.u.
   NGXF,Y,Z  is equivalent  to a cutoff of  48.64, 48.64, 48.64 a.u.

 SYSTEM =  C                                       
 POSCAR =   H  O                                   

 Startparameter for this run:
   NWRITE =      2    write-flag & timer
   PREC   = acc       normal or accurate (medium, high low for compatibility)
   ISTART =      0    job   : 0-new  1-cont  2-samecut
   ICHARG =      2    charge: 1-file 2-atom 10-const
   ISPIN  =      1    spin polarized calculation?
   LNONCOLLINEAR =      F non collinear calculations
   LSORBIT =      F    spin-orbit coupling
   INIWAV =      1    electr: 0-lowe 1-rand  2-diag
   LASPH  =      T    aspherical Exc in radial PAW
   METAGGA=      F    non-selfconsistent MetaGGA calc.

 Electronic Relaxation 1
   ENCUT  = 2000.0 eV 147.00 Ry   12.12 a.u. 127.63127.63127.63*2*pi/ulx,y,z
   ENINI  = 2000.0     initial cutoff
   ENAUG  = 1000.0 eV  augmentation charge cutoff
   NELM   =     60;   NELMIN=  2; NELMDL= -5     # of ELM steps 
   EDIFF  = 0.1E-06   stopping-criterion for ELM
   LREAL  =      F    real-space projection
   NLSPLINE    = F    spline interpolate recip. space projectors
   LCOMPAT=      F    compatible to vasp.4.4
   GGA_COMPAT  = T    GGA compatible to vasp.4.4-vasp.4.6
   LMAXPAW     = -100 max onsite density
   LMAXMIX     =    2 max onsite mixed and CHGCAR
   VOSKOWN=      0    Vosko Wilk Nusair interpolation
   ROPT   =    0.00000   0.00000
 Ionic relaxation
   EDIFFG = 0.1E-05   stopping-criterion for IOM
   NSW    =      0    number of steps for IOM
   NBLOCK =      1;   KBLOCK =      1    inner block; outer block 
   IBRION =     -1    ionic relax: 0-MD 1-quasi-New 2-CG
   NFREE  =      0    steps in history (QN), initial steepest desc. (CG)
   ISIF   =      2    stress and relaxation
   IWAVPR =     10    prediction:  0-non 1-charg 2-wave 3-comb
   ISYM   =      2    0-nonsym 1-usesym 2-fastsym
   LCORR  =      T    Harris-Foulkes like correction to forces

   POTIM  = 0.5000    time-step for ionic-motion
   TEIN   =    0.0    initial temperature
   TEBEG  =    0.0;   TEEND  =   0.0 temperature during run
   SMASS  =  -3.00    Nose mass-parameter (am)
   estimated Nose-frequenzy (Omega)   =  0.10E-29 period in steps = 0.13E+47 mass=  -0.280E-25a.u.
   SCALEE = 1.0000    scale energy and forces
   NPACO  =    256;   APACO  = 16.0  distance and # of slots for P.C.
   PSTRESS=    0.0 pullay stress

  Mass of Ions in am
   POMASS =   1.00 16.00
  Ionic Valenz
   ZVAL   =   1.00  6.00
  Atomic Wigner-Seitz radii
   RWIGS  =  -1.00 -1.00
  virtual crystal weights 
   VCA    =   1.00  1.00
   NELECT =      16.0000    total number of electrons
   NUPDOWN=      -1.0000    fix difference up-down

 DOS related values:
   EMIN   =  10.00;   EMAX   =-10.00  energy-range for DOS
   EFERMI =   0.00
   ISMEAR =     0;   SIGMA  =   0.01  broadening in eV -4-tet -1-fermi 0-gaus

 Electronic relaxation 2 (details)
   IALGO  =     38    algorithm
   LDIAG  =      T    sub-space diagonalisation (order eigenvalues)
   LSUBROT=      F    optimize rotation matrix (better conditioning)
   TURBO    =      0    0=normal 1=particle mesh
   IRESTART =      0    0=no restart 2=restart with 2 vectors
   NREBOOT  =      0    no. of reboots
   NMIN     =      0    reboot dimension
   EREF     =   0.00    reference energy to select bands
   IMIX   =      4    mixing-type and parameters
     AMIX     =   0.40;   BMIX     =  1.00
     AMIX_MAG =   1.60;   BMIX_MAG =  1.00
     AMIN     =   0.10
     WC   =   100.;   INIMIX=   1;  MIXPRE=   1;  MAXMIX= -45

 Intra band minimization:
   WEIMIN = 0.0000     energy-eigenvalue tresh-hold
   EBREAK =  0.21E-08  absolut break condition
   DEPER  =   0.30     relativ break condition  

   TIME   =   0.40     timestep for ELM

  volume/ion in A,a.u.               =    7145.83     48222.46
  Fermi-wavevector in a.u.,A,eV,Ry     =   0.117864  0.222730  0.189010  0.013892
  Thomas-Fermi vector in A             =   0.732055
 
 Write flags
   LWAVE        =      T    write WAVECAR
   LDOWNSAMPLE  =      F    k-point downsampling of WAVECAR
   LCHARG       =      T    write CHGCAR
   LVTOT        =      F    write LOCPOT, total local potential
   LVHAR        =      F    write LOCPOT, Hartree potential only
   LELF         =      F    write electronic localiz. function (ELF)
   LORBIT       =      0    0 simple, 1 ext, 2 COOP (PROOUT), +10 PAW based schemes


 Dipole corrections
   LMONO  =      F    monopole corrections only (constant potential shift)
   LDIPOL =      F    correct potential (dipole corrections)
   IDIPOL =      4    1-x, 2-y, 3-z, 4-all directions 
   EPSILON=  1.0000000 bulk dielectric constant

 Exchange correlation treatment:
   GGA     =    --    GGA type
   LEXCH   =     8    internal setting for exchange type
   VOSKOWN=      0    Vosko Wilk Nusair interpolation
   LHFCALC =     F    Hartree Fock is set to
   LHFONE  =     F    Hartree Fock one center treatment
   AEXX    =    0.0000 exact exchange contribution

 Linear response parameters
   LEPSILON=     F    determine dielectric tensor
   LRPA    =     F    only Hartree local field effects (RPA)
   LNABLA  =     F    use nabla operator in PAW spheres
   LVEL    =     F    velocity operator in full k-point grid
   LINTERFAST=   F  fast interpolation
   KINTER  =     0    interpolate to denser k-point grid
   CSHIFT  =0.1000    complex shift for real part using Kramers Kronig
   OMEGAMAX=  -1.0    maximum frequency
   DEG_THRESHOLD= 0.2000000E-02 threshold for treating states as degnerate
   RTIME   =   -0.100 relaxation time in fs
  (WPLASMAI=    0.000 imaginary part of plasma frequency in eV, 0.658/RTIME)
   DFIELD  = 0.0000000 0.0000000 0.0000000 field for delta impulse in time
 
 Orbital magnetization related:
   ORBITALMAG=     F  switch on orbital magnetization
   LCHIMAG   =     F  perturbation theory with respect to B field
   DQ        =  0.001000  dq finite difference perturbation B field
   LLRAUG    =     F  two centre corrections for induced B field



--------------------------------------------------------------------------------------------------------


 Static calculation
 charge density and potential will be updated during run
 non-spin polarized calculation
 Variant of blocked Davidson
 Davidson routine will perform the subspace rotation
 perform sub-space diagonalisation
    after iterative eigenvector-optimisation
 modified Broyden-mixing scheme, WC =      100.0
 initial mixing is a Kerker type mixing with AMIX =  0.4000 and BMIX =      1.0000
 Hartree-type preconditioning will be used
 using additional bands             4
 reciprocal scheme for non local part
 use partial core corrections
 calculate Harris-corrections to forces 
   (improved forces if not selfconsistent)
 use gradient corrections 
 use of overlap-Matrix (Vanderbilt PP)
 Gauss-broadening in eV      SIGMA  =   0.01


--------------------------------------------------------------------------------------------------------


  energy-cutoff  :     2000.00
  volume of cell :    42875.00
      direct lattice vectors                 reciprocal lattice vectors
    35.000000000  0.000000000  0.000000000     0.028571429  0.000000000  0.000000000
     0.000000000 35.000000000  0.000000000     0.000000000  0.028571429  0.000000000
     0.000000000  0.000000000 35.000000000     0.000000000  0.000000000  0.028571429

  length of vectors
    35.000000000 35.000000000 35.000000000     0.028571429  0.028571429  0.028571429


 
 k-points in units of 2pi/SCALE and weight: automatic mesh                          
   0.00000000  0.00000000  0.00000000       1.000
 
 k-points in reciprocal lattice and weights: automatic mesh                          
   0.00000000  0.00000000  0.00000000       1.000
 
 position of ions in fractional coordinates (direct lattice) 
   0.00050308  0.01829898  0.97824710
   0.99961778  0.01804667  0.02155859
   0.00084868  0.12232507  0.97757108
   0.00039005  0.12437924  0.02084119
   0.00000000  0.03506303  0.00000000
   0.00000000  0.10649160  0.00000000
 
 position of ions in cartesian coordinates  (Angst):
   0.01760775  0.64046416 34.23864840
  34.98662216  0.63163330  0.75455051
   0.02970387  4.28137746 34.21498793
   0.01365177  4.35327352  0.72944182
   0.00000000  1.22720600  0.00000000
   0.00000000  3.72720600  0.00000000
 


--------------------------------------------------------------------------------------------------------


 use parallel FFT for orbitals z direction half grid
 k-point   1 :   0.0000 0.0000 0.0000  plane waves: 4353902

 maximum and minimum number of plane-waves per node :    544247   544233

 maximum number of plane-waves:   4353902
 maximum index in each direction: 
   IXMAX=  127   IYMAX=  127   IZMAX=  127
   IXMIN= -127   IYMIN= -127   IZMIN=    0


 parallel 3D FFT for wavefunctions:
    minimum data exchange during FFTs selected (reduces bandwidth)
 parallel 3D FFT for charge:
    minimum data exchange during FFTs selected (reduces bandwidth)


 total amount of memory used by VASP MPI-rank0  4207116. kBytes
=======================================================================

   base      :      30000. kBytes
   nonl-proj :     121908. kBytes
   fftplans  :    1475802. kBytes
   grid      :    2553282. kBytes
   one-center:          1. kBytes
   wavefun   :      26123. kBytes
 
     INWAV:  cpu time    0.0001: real time    0.0000
 Broyden mixing: mesh for mixing (old mesh)
   NGX =255   NGY =255   NGZ =255
  (NGX  =***   NGY  =***   NGZ  =***)
  gives a total of ****** points

 initial charge density was supplied:
 charge density of overlapping atoms calculated
 number of electron      16.0000000 magnetization 
 keeping initial charge density in first step


--------------------------------------------------------------------------------------------------------


 Maximum index for augmentation-charges           955 (set IRDMAX)


--------------------------------------------------------------------------------------------------------


 First call to EWALD:  gamma=   0.051
 Maximum number of real-space cells 3x 3x 3
 Maximum number of reciprocal cells 3x 3x 3

    FEWALD:  cpu time    0.0010: real time    0.0010


--------------------------------------- Iteration      1(   1)  ---------------------------------------


    POTLOK:  cpu time   27.1741: real time   27.2153
    SETDIJ:  cpu time    0.0569: real time    0.0586
     EDDAV:  cpu time   14.8785: real time   15.1256
       DOS:  cpu time    0.0075: real time    0.0075
    --------------------------------------------
      LOOP:  cpu time   42.1170: real time   42.4070

 eigenvalue-minimisations  :    40
 total energy-change (2. order) : 0.1525725E+03  (-0.3169922E+03)
 number of electron      16.0000000 magnetization 
 augmentation part       16.0000000 magnetization 

 Free energy of the ion-electron system (eV)
  ---------------------------------------------------
  alpha Z        PSCENC =         0.01522463
  Ewald energy   TEWEN  =       560.46884254
  -Hartree energ DENC   =     -1273.40317126
  -exchange      EXHF   =         0.00000000
  -V(xc)+E(xc)   XCENC  =        61.14237587
  PAW double counting   =       697.41634940     -699.85762974
  entropy T*S    EENTRO =        -0.00000000
  eigenvalues    EBANDS =      -107.91719812
  atomic energy  EATOM  =       914.70769713
  Solvation  Ediel_sol  =         0.00000000
  ---------------------------------------------------
  free energy    TOTEN  =       152.57249047 eV

  energy without entropy =      152.57249047  energy(sigma->0) =      152.57249047


--------------------------------------------------------------------------------------------------------




--------------------------------------- Iteration      1(   2)  ---------------------------------------


     EDDAV:  cpu time   12.7993: real time   12.8196
       DOS:  cpu time    0.0037: real time    0.0037
    --------------------------------------------
      LOOP:  cpu time   12.8030: real time   12.8232

 eigenvalue-minimisations  :    32
 total energy-change (2. order) :-0.6223003E+02  (-0.6175458E+02)
 number of electron      16.0000000 magnetization 
 augmentation part       16.0000000 magnetization 

 Free energy of the ion-electron system (eV)
  ---------------------------------------------------
  alpha Z        PSCENC =         0.01522463
  Ewald energy   TEWEN  =       560.46884254
  -Hartree energ DENC   =     -1273.40317126
  -exchange      EXHF   =         0.00000000
  -V(xc)+E(xc)   XCENC  =        61.14237587
  PAW double counting   =       697.41634940     -699.85762974
  entropy T*S    EENTRO =        -0.00000000
  eigenvalues    EBANDS =      -170.14722439
  atomic energy  EATOM  =       914.70769713
  Solvation  Ediel_sol  =         0.00000000
  ---------------------------------------------------
  free energy    TOTEN  =        90.34246420 eV

  energy without entropy =       90.34246420  energy(sigma->0) =       90.34246420


--------------------------------------------------------------------------------------------------------




--------------------------------------- Iteration      1(   3)  ---------------------------------------


     EDDAV:  cpu time   14.7939: real time   14.8179
       DOS:  cpu time    0.0036: real time    0.0036
    --------------------------------------------
      LOOP:  cpu time   14.7975: real time   14.8214

 eigenvalue-minimisations  :    40
 total energy-change (2. order) :-0.6582481E+02  (-0.6557100E+02)
 number of electron      16.0000000 magnetization 
 augmentation part       16.0000000 magnetization 

 Free energy of the ion-electron system (eV)
  ---------------------------------------------------
  alpha Z        PSCENC =         0.01522463
  Ewald energy   TEWEN  =       560.46884254
  -Hartree energ DENC   =     -1273.40317126
  -exchange      EXHF   =         0.00000000
  -V(xc)+E(xc)   XCENC  =        61.14237587
  PAW double counting   =       697.41634940     -699.85762974
  entropy T*S    EENTRO =        -0.00000000
  eigenvalues    EBANDS =      -235.97203887
  atomic energy  EATOM  =       914.70769713
  Solvation  Ediel_sol  =         0.00000000
  ---------------------------------------------------
  free energy    TOTEN  =        24.51764972 eV

  energy without entropy =       24.51764972  energy(sigma->0) =       24.51764972


--------------------------------------------------------------------------------------------------------




--------------------------------------- Iteration      1(   4)  ---------------------------------------


     EDDAV:  cpu time   15.1116: real time   15.1354
       DOS:  cpu time    0.0009: real time    0.0009
    --------------------------------------------
      LOOP:  cpu time   15.1125: real time   15.1363

 eigenvalue-minimisations  :    40
 total energy-change (2. order) :-0.4134886E+02  (-0.3573858E+02)
 number of electron      16.0000000 magnetization 
 augmentation part       16.0000000 magnetization 

 Free energy of the ion-electron system (eV)
  ---------------------------------------------------
  alpha Z        PSCENC =         0.01522463
  Ewald energy   TEWEN  =       560.46884254
  -Hartree energ DENC   =     -1273.40317126
  -exchange      EXHF   =         0.00000000
  -V(xc)+E(xc)   XCENC  =        61.14237587
  PAW double counting   =       697.41634940     -699.85762974
  entropy T*S    EENTRO =        -0.00000000
  eigenvalues    EBANDS =      -277.32089592
  atomic energy  EATOM  =       914.70769713
  Solvation  Ediel_sol  =         0.00000000
  ---------------------------------------------------
  free energy    TOTEN  =       -16.83120734 eV

  energy without entropy =      -16.83120734  energy(sigma->0) =      -16.83120734


--------------------------------------------------------------------------------------------------------




--------------------------------------- Iteration      1(   5)  ---------------------------------------


     EDDAV:  cpu time   12.8539: real time   12.8752
       DOS:  cpu time    0.0012: real time    0.0012
    CHARGE:  cpu time    3.7200: real time    3.7252
    MIXING:  cpu time    0.6771: real time    0.6780
    --------------------------------------------
      LOOP:  cpu time   17.2521: real time   17.2796

 eigenvalue-minimisations  :    32
 total energy-change (2. order) :-0.1496053E+02  (-0.1489223E+02)
 number of electron      16.0000000 magnetization 
 augmentation part        0.1876733 magnetization 

 Broyden mixing:
  rms(total) = 0.20263E+01    rms(broyden)= 0.20263E+01
  rms(prec ) = 0.20443E+01
  weight for this iteration     100.00

 Free energy of the ion-electron system (eV)
  ---------------------------------------------------
  alpha Z        PSCENC =         0.01522463
  Ewald energy   TEWEN  =       560.46884254
  -Hartree energ DENC   =     -1273.40317126
  -exchange      EXHF   =         0.00000000
  -V(xc)+E(xc)   XCENC  =        61.14237587
  PAW double counting   =       697.41634940     -699.85762974
  entropy T*S    EENTRO =        -0.00000000
  eigenvalues    EBANDS =      -292.28142469
  atomic energy  EATOM  =       914.70769713
  Solvation  Ediel_sol  =         0.00000000
  ---------------------------------------------------
  free energy    TOTEN  =       -31.79173610 eV

  energy without entropy =      -31.79173610  energy(sigma->0) =      -31.79173610


--------------------------------------------------------------------------------------------------------




--------------------------------------- Iteration      1(   6)  ---------------------------------------


    POTLOK:  cpu time   27.1402: real time   27.1808
    SETDIJ:  cpu time    0.0757: real time    0.0758
     EDDAV:  cpu time   11.6477: real time   11.6659
       DOS:  cpu time    0.0060: real time    0.0060
    CHARGE:  cpu time    3.6024: real time    3.6074
    MIXING:  cpu time    0.5709: real time    0.5820
    --------------------------------------------
      LOOP:  cpu time   43.0429: real time   43.1179

 eigenvalue-minimisations  :    28
 total energy-change (2. order) : 0.3035323E+01  (-0.1392775E+01)
 number of electron      16.0000000 magnetization 
 augmentation part        0.1394463 magnetization 

 Broyden mixing:
  rms(total) = 0.20127E+01    rms(broyden)= 0.20127E+01
  rms(prec ) = 0.20153E+01
  weight for this iteration     100.00

 eigenvalues of (default mixing * dielectric matrix)
  average eigenvalue GAMMA=   0.4824
  0.4824

 Free energy of the ion-electron system (eV)
  ---------------------------------------------------
  alpha Z        PSCENC =         0.01522463
  Ewald energy   TEWEN  =       560.46884254
  -Hartree energ DENC   =     -1318.82075873
  -exchange      EXHF   =         0.00000000
  -V(xc)+E(xc)   XCENC  =        63.46887670
  PAW double counting   =      1805.12266269    -1808.09941981
  entropy T*S    EENTRO =        -0.00000000
  eigenvalues    EBANDS =      -245.61953806
  atomic energy  EATOM  =       914.70769713
  Solvation  Ediel_sol  =         0.00000000
  ---------------------------------------------------
  free energy    TOTEN  =       -28.75641291 eV

  energy without entropy =      -28.75641291  energy(sigma->0) =      -28.75641291


--------------------------------------------------------------------------------------------------------




--------------------------------------- Iteration      1(   7)  ---------------------------------------


    POTLOK:  cpu time   27.1907: real time   27.2311
    SETDIJ:  cpu time    0.0597: real time    0.0598
     EDDAV:  cpu time   14.9726: real time   14.9974
       DOS:  cpu time    0.0037: real time    0.0037
    CHARGE:  cpu time    3.6518: real time    3.6587
    MIXING:  cpu time    0.6963: real time    0.6974
    --------------------------------------------
      LOOP:  cpu time   46.5749: real time   46.6481

 eigenvalue-minimisations  :    40
 total energy-change (2. order) : 0.1782316E+00  (-0.8958393E-01)
 number of electron      16.0000000 magnetization 
 augmentation part        0.1300122 magnetization 

 Broyden mixing:
  rms(total) = 0.17917E+01    rms(broyden)= 0.17917E+01
  rms(prec ) = 0.17932E+01
  weight for this iteration     100.00

 eigenvalues of (default mixing * dielectric matrix)
  average eigenvalue GAMMA=   1.6398
  1.6398  1.6398

 Free energy of the ion-electron system (eV)
  ---------------------------------------------------
  alpha Z        PSCENC =         0.01522463
  Ewald energy   TEWEN  =       560.46884254
  -Hartree energ DENC   =     -1327.32376242
  -exchange      EXHF   =         0.00000000
  -V(xc)+E(xc)   XCENC  =        63.89123472
  PAW double counting   =      2665.33458010    -2668.35519423
  entropy T*S    EENTRO =        -0.00000000
  eigenvalues    EBANDS =      -237.31680375
  atomic energy  EATOM  =       914.70769713
  Solvation  Ediel_sol  =         0.00000000
  ---------------------------------------------------
  free energy    TOTEN  =       -28.57818128 eV

  energy without entropy =      -28.57818128  energy(sigma->0) =      -28.57818128


--------------------------------------------------------------------------------------------------------




--------------------------------------- Iteration      1(   8)  ---------------------------------------


    POTLOK:  cpu time   27.1800: real time   27.2201
    SETDIJ:  cpu time    0.0497: real time    0.0497
     EDDAV:  cpu time   11.7081: real time   11.7263
       DOS:  cpu time    0.0058: real time    0.0058
    CHARGE:  cpu time    3.5805: real time    3.5857
    MIXING:  cpu time    0.7434: real time    0.7445
    --------------------------------------------
      LOOP:  cpu time   43.2676: real time   43.3321

 eigenvalue-minimisations  :    28
 total energy-change (2. order) : 0.2022622E+00  (-0.3411262E-01)
 number of electron      16.0000000 magnetization 
 augmentation part        0.1405195 magnetization 

 Broyden mixing:
  rms(total) = 0.41872E+00    rms(broyden)= 0.41872E+00
  rms(prec ) = 0.42194E+00
  weight for this iteration     100.00

 eigenvalues of (default mixing * dielectric matrix)
  average eigenvalue GAMMA=   1.3763
  2.1600  0.9845  0.9845

 Free energy of the ion-electron system (eV)
  ---------------------------------------------------
  alpha Z        PSCENC =         0.01522463
  Ewald energy   TEWEN  =       560.46884254
  -Hartree energ DENC   =     -1336.89903738
  -exchange      EXHF   =         0.00000000
  -V(xc)+E(xc)   XCENC  =        64.35191938
  PAW double counting   =      7206.68479637    -7209.59417987
  entropy T*S    EENTRO =        -0.00000000
  eigenvalues    EBANDS =      -228.11118184
  atomic energy  EATOM  =       914.70769713
  Solvation  Ediel_sol  =         0.00000000
  ---------------------------------------------------
  free energy    TOTEN  =       -28.37591903 eV

  energy without entropy =      -28.37591903  energy(sigma->0) =      -28.37591903


--------------------------------------------------------------------------------------------------------




--------------------------------------- Iteration      1(   9)  ---------------------------------------


    POTLOK:  cpu time   27.2123: real time   27.2538
    SETDIJ:  cpu time    0.0542: real time    0.0542
     EDDAV:  cpu time   12.6582: real time   12.6782
       DOS:  cpu time    0.0031: real time    0.0031
    CHARGE:  cpu time    3.7306: real time    3.7361
    MIXING:  cpu time    0.6882: real time    0.6893
    --------------------------------------------
      LOOP:  cpu time   44.3466: real time   44.4147

 eigenvalue-minimisations  :    32
 total energy-change (2. order) : 0.1175145E+00  (-0.4793989E-01)
 number of electron      16.0000000 magnetization 
 augmentation part        0.1234847 magnetization 

 Broyden mixing:
  rms(total) = 0.20170E+00    rms(broyden)= 0.20170E+00
  rms(prec ) = 0.20260E+00
  weight for this iteration     100.00

 eigenvalues of (default mixing * dielectric matrix)
  average eigenvalue GAMMA=   1.2118
  2.0711  1.2574  0.7593  0.7593

 Free energy of the ion-electron system (eV)
  ---------------------------------------------------
  alpha Z        PSCENC =         0.01522463
  Ewald energy   TEWEN  =       560.46884254
  -Hartree energ DENC   =     -1346.35334294
  -exchange      EXHF   =         0.00000000
  -V(xc)+E(xc)   XCENC  =        64.81938858
  PAW double counting   =      7244.85146766    -7247.85839325
  entropy T*S    EENTRO =        -0.00000000
  eigenvalues    EBANDS =      -218.90928891
  atomic energy  EATOM  =       914.70769713
  Solvation  Ediel_sol  =         0.00000000
  ---------------------------------------------------
  free energy    TOTEN  =       -28.25840456 eV

  energy without entropy =      -28.25840456  energy(sigma->0) =      -28.25840456


--------------------------------------------------------------------------------------------------------




--------------------------------------- Iteration      1(  10)  ---------------------------------------


    POTLOK:  cpu time   27.2790: real time   27.3195
    SETDIJ:  cpu time    0.0581: real time    0.0581
     EDDAV:  cpu time   14.7820: real time   14.8058
       DOS:  cpu time    0.0042: real time    0.0042
    CHARGE:  cpu time    3.6464: real time    3.6518
    MIXING:  cpu time    0.7638: real time    0.7648
    --------------------------------------------
      LOOP:  cpu time   46.5335: real time   46.6043

 eigenvalue-minimisations  :    40
 total energy-change (2. order) :-0.2697818E-03  (-0.2402252E-02)
 number of electron      16.0000000 magnetization 
 augmentation part        0.1258087 magnetization 

 Broyden mixing:
  rms(total) = 0.13830E+00    rms(broyden)= 0.13830E+00
  rms(prec ) = 0.13936E+00
  weight for this iteration     100.00

 eigenvalues of (default mixing * dielectric matrix)
  average eigenvalue GAMMA=   1.2914
  1.8893  1.8893  0.9980  0.9980  0.6825

 Free energy of the ion-electron system (eV)
  ---------------------------------------------------
  alpha Z        PSCENC =         0.01522463
  Ewald energy   TEWEN  =       560.46884254
  -Hartree energ DENC   =     -1346.53338824
  -exchange      EXHF   =         0.00000000
  -V(xc)+E(xc)   XCENC  =        64.79922054
  PAW double counting   =      7161.99774195    -7164.98627735
  entropy T*S    EENTRO =        -0.00000000
  eigenvalues    EBANDS =      -218.72773555
  atomic energy  EATOM  =       914.70769713
  Solvation  Ediel_sol  =         0.00000000
  ---------------------------------------------------
  free energy    TOTEN  =       -28.25867434 eV

  energy without entropy =      -28.25867434  energy(sigma->0) =      -28.25867434


--------------------------------------------------------------------------------------------------------




--------------------------------------- Iteration      1(  11)  ---------------------------------------


    POTLOK:  cpu time   27.2741: real time   27.3148
    SETDIJ:  cpu time    0.0548: real time    0.0549
     EDDAV:  cpu time   12.5886: real time   12.6089
       DOS:  cpu time    0.0083: real time    0.0083
    CHARGE:  cpu time    3.7049: real time    3.7103
    MIXING:  cpu time    0.6866: real time    0.6877
    --------------------------------------------
      LOOP:  cpu time   44.3173: real time   44.3849

 eigenvalue-minimisations  :    32
 total energy-change (2. order) : 0.5376472E-02  (-0.9673316E-03)
 number of electron      16.0000000 magnetization 
 augmentation part        0.1237531 magnetization 

 Broyden mixing:
  rms(total) = 0.35784E-01    rms(broyden)= 0.35784E-01
  rms(prec ) = 0.37561E-01
  weight for this iteration     100.00

 eigenvalues of (default mixing * dielectric matrix)
  average eigenvalue GAMMA=   1.4239
  2.4247  2.4247  1.0326  1.0326  0.8143  0.8143

 Free energy of the ion-electron system (eV)
  ---------------------------------------------------
  alpha Z        PSCENC =         0.01522463
  Ewald energy   TEWEN  =       560.46884254
  -Hartree energ DENC   =     -1349.03271919
  -exchange      EXHF   =         0.00000000
  -V(xc)+E(xc)   XCENC  =        64.86389535
  PAW double counting   =      6936.20226936    -6939.18869834
  entropy T*S    EENTRO =        -0.00000000
  eigenvalues    EBANDS =      -216.28980935
  atomic energy  EATOM  =       914.70769713
  Solvation  Ediel_sol  =         0.00000000
  ---------------------------------------------------
  free energy    TOTEN  =       -28.25329787 eV

  energy without entropy =      -28.25329787  energy(sigma->0) =      -28.25329787


--------------------------------------------------------------------------------------------------------




--------------------------------------- Iteration      1(  12)  ---------------------------------------


    POTLOK:  cpu time   27.3553: real time   27.3960
    SETDIJ:  cpu time    0.0603: real time    0.0603
     EDDAV:  cpu time   13.7635: real time   13.7852
       DOS:  cpu time    0.0119: real time    0.0119
    CHARGE:  cpu time    3.7118: real time    3.7171
    MIXING:  cpu time    0.7309: real time    0.7321
    --------------------------------------------
      LOOP:  cpu time   45.6337: real time   45.7026

 eigenvalue-minimisations  :    36
 total energy-change (2. order) : 0.5086576E-03  (-0.3652732E-03)
 number of electron      16.0000000 magnetization 
 augmentation part        0.1230507 magnetization 

 Broyden mixing:
  rms(total) = 0.24624E-01    rms(broyden)= 0.24624E-01
  rms(prec ) = 0.25680E-01
  weight for this iteration     100.00

 eigenvalues of (default mixing * dielectric matrix)
  average eigenvalue GAMMA=   1.3799
  2.5393  2.5393  0.9599  0.9599  0.9497  0.9497  0.7615

 Free energy of the ion-electron system (eV)
  ---------------------------------------------------
  alpha Z        PSCENC =         0.01522463
  Ewald energy   TEWEN  =       560.46884254
  -Hartree energ DENC   =     -1351.09078118
  -exchange      EXHF   =         0.00000000
  -V(xc)+E(xc)   XCENC  =        64.91101434
  PAW double counting   =      6844.95047680    -6847.93160465
  entropy T*S    EENTRO =        -0.00000000
  eigenvalues    EBANDS =      -214.28365883
  atomic energy  EATOM  =       914.70769713
  Solvation  Ediel_sol  =         0.00000000
  ---------------------------------------------------
  free energy    TOTEN  =       -28.25278921 eV

  energy without entropy =      -28.25278921  energy(sigma->0) =      -28.25278921


--------------------------------------------------------------------------------------------------------




--------------------------------------- Iteration      1(  13)  ---------------------------------------


    POTLOK:  cpu time   27.3828: real time   27.4230
    SETDIJ:  cpu time    0.0510: real time    0.0510
     EDDAV:  cpu time   14.9829: real time   15.0065
       DOS:  cpu time    0.0043: real time    0.0043
    CHARGE:  cpu time    3.6303: real time    3.6356
    MIXING:  cpu time    0.8094: real time    0.8107
    --------------------------------------------
      LOOP:  cpu time   46.8606: real time   46.9311

 eigenvalue-minimisations  :    40
 total energy-change (2. order) :-0.1584800E-02  (-0.5026906E-04)
 number of electron      16.0000000 magnetization 
 augmentation part        0.1226396 magnetization 

 Broyden mixing:
  rms(total) = 0.32869E-01    rms(broyden)= 0.32869E-01
  rms(prec ) = 0.33495E-01
  weight for this iteration     100.00

 eigenvalues of (default mixing * dielectric matrix)
  average eigenvalue GAMMA=   1.6440
  3.4550  2.8174  1.9274  1.2670  0.9667  0.9667  0.9131  0.8385

 Free energy of the ion-electron system (eV)
  ---------------------------------------------------
  alpha Z        PSCENC =         0.01522463
  Ewald energy   TEWEN  =       560.46884254
  -Hartree energ DENC   =     -1351.57085813
  -exchange      EXHF   =         0.00000000
  -V(xc)+E(xc)   XCENC  =        64.91928516
  PAW double counting   =      6791.82176691    -6794.80401305
  entropy T*S    EENTRO =        -0.00000000
  eigenvalues    EBANDS =      -213.81231922
  atomic energy  EATOM  =       914.70769713
  Solvation  Ediel_sol  =         0.00000000
  ---------------------------------------------------
  free energy    TOTEN  =       -28.25437401 eV

  energy without entropy =      -28.25437401  energy(sigma->0) =      -28.25437401


--------------------------------------------------------------------------------------------------------




--------------------------------------- Iteration      1(  14)  ---------------------------------------


    POTLOK:  cpu time   27.4948: real time   27.5352
    SETDIJ:  cpu time    0.0730: real time    0.0730
     EDDAV:  cpu time   12.7231: real time   12.7444
       DOS:  cpu time    0.0008: real time    0.0008
    CHARGE:  cpu time    3.5975: real time    3.6028
    MIXING:  cpu time    0.8792: real time    0.8806
    --------------------------------------------
      LOOP:  cpu time   44.7685: real time   44.8368

 eigenvalue-minimisations  :    32
 total energy-change (2. order) :-0.7841146E-02  (-0.2780186E-03)
 number of electron      16.0000000 magnetization 
 augmentation part        0.1226025 magnetization 

 Broyden mixing:
  rms(total) = 0.17483E-01    rms(broyden)= 0.17483E-01
  rms(prec ) = 0.17724E-01
  weight for this iteration     100.00

 eigenvalues of (default mixing * dielectric matrix)
  average eigenvalue GAMMA=   1.5219
  3.7003  2.2673  2.2673  0.9050  0.9050  1.0256  1.0256  0.8938  0.7069

 Free energy of the ion-electron system (eV)
  ---------------------------------------------------
  alpha Z        PSCENC =         0.01522463
  Ewald energy   TEWEN  =       560.46884254
  -Hartree energ DENC   =     -1353.19145911
  -exchange      EXHF   =         0.00000000
  -V(xc)+E(xc)   XCENC  =        64.93432308
  PAW double counting   =      6798.79754648    -6801.77630968
  entropy T*S    EENTRO =        -0.00000000
  eigenvalues    EBANDS =      -212.21808023
  atomic energy  EATOM  =       914.70769713
  Solvation  Ediel_sol  =         0.00000000
  ---------------------------------------------------
  free energy    TOTEN  =       -28.26221516 eV

  energy without entropy =      -28.26221516  energy(sigma->0) =      -28.26221516


--------------------------------------------------------------------------------------------------------




--------------------------------------- Iteration      1(  15)  ---------------------------------------


    POTLOK:  cpu time   27.3588: real time   27.3996
    SETDIJ:  cpu time    0.0639: real time    0.0639
     EDDAV:  cpu time   15.0263: real time   15.0500
       DOS:  cpu time    0.0020: real time    0.0020
    CHARGE:  cpu time    3.6573: real time    3.6643
    MIXING:  cpu time    0.9037: real time    0.9052
    --------------------------------------------
      LOOP:  cpu time   47.0121: real time   47.0849

 eigenvalue-minimisations  :    40
 total energy-change (2. order) :-0.7269933E-03  (-0.1712986E-04)
 number of electron      16.0000000 magnetization 
 augmentation part        0.1223992 magnetization 

 Broyden mixing:
  rms(total) = 0.11286E-01    rms(broyden)= 0.11286E-01
  rms(prec ) = 0.11606E-01
  weight for this iteration     100.00

 eigenvalues of (default mixing * dielectric matrix)
  average eigenvalue GAMMA=   1.3714
  3.7054  2.2269  2.2269  0.9009  0.9009  1.0532  1.0532  0.8521  0.6483  0.1460

 Free energy of the ion-electron system (eV)
  ---------------------------------------------------
  alpha Z        PSCENC =         0.01522463
  Ewald energy   TEWEN  =       560.46884254
  -Hartree energ DENC   =     -1353.34732069
  -exchange      EXHF   =         0.00000000
  -V(xc)+E(xc)   XCENC  =        64.93841356
  PAW double counting   =      6815.34493648    -6818.32396017
  entropy T*S    EENTRO =        -0.00000000
  eigenvalues    EBANDS =      -212.06677563
  atomic energy  EATOM  =       914.70769713
  Solvation  Ediel_sol  =         0.00000000
  ---------------------------------------------------
  free energy    TOTEN  =       -28.26294215 eV

  energy without entropy =      -28.26294215  energy(sigma->0) =      -28.26294215


--------------------------------------------------------------------------------------------------------




--------------------------------------- Iteration      1(  16)  ---------------------------------------


    POTLOK:  cpu time   27.4092: real time   27.4496
    SETDIJ:  cpu time    0.0595: real time    0.0595
     EDDAV:  cpu time   11.6269: real time   11.6451
       DOS:  cpu time    0.0045: real time    0.0045
    CHARGE:  cpu time    3.6104: real time    3.6156
    MIXING:  cpu time    0.9634: real time    0.9648
    --------------------------------------------
      LOOP:  cpu time   43.6738: real time   43.7392

 eigenvalue-minimisations  :    28
 total energy-change (2. order) :-0.5795161E-04  (-0.4252724E-06)
 number of electron      16.0000000 magnetization 
 augmentation part        0.1224206 magnetization 

 Broyden mixing:
  rms(total) = 0.11806E-01    rms(broyden)= 0.11806E-01
  rms(prec ) = 0.12109E-01
  weight for this iteration     100.00

 eigenvalues of (default mixing * dielectric matrix)
  average eigenvalue GAMMA=   1.4379
  3.8289  2.4243  2.4243  1.1797  0.9469  0.9469  0.9883  0.9883  0.8371  0.6260
  0.6260

 Free energy of the ion-electron system (eV)
  ---------------------------------------------------
  alpha Z        PSCENC =         0.01522463
  Ewald energy   TEWEN  =       560.46884254
  -Hartree energ DENC   =     -1353.34363189
  -exchange      EXHF   =         0.00000000
  -V(xc)+E(xc)   XCENC  =        64.93792677
  PAW double counting   =      6811.80140676    -6814.78027022
  entropy T*S    EENTRO =        -0.00000000
  eigenvalues    EBANDS =      -212.07019582
  atomic energy  EATOM  =       914.70769713
  Solvation  Ediel_sol  =         0.00000000
  ---------------------------------------------------
  free energy    TOTEN  =       -28.26300010 eV

  energy without entropy =      -28.26300010  energy(sigma->0) =      -28.26300010


--------------------------------------------------------------------------------------------------------




--------------------------------------- Iteration      1(  17)  ---------------------------------------


    POTLOK:  cpu time   27.3674: real time   27.4080
    SETDIJ:  cpu time    0.0671: real time    0.0671
     EDDAV:  cpu time   11.6450: real time   11.6633
       DOS:  cpu time    0.0092: real time    0.0092
    CHARGE:  cpu time    3.6684: real time    3.6740
    MIXING:  cpu time    1.1637: real time    1.1654
    --------------------------------------------
      LOOP:  cpu time   43.9209: real time   43.9870

 eigenvalue-minimisations  :    28
 total energy-change (2. order) : 0.2135845E-03  (-0.3024309E-06)
 number of electron      16.0000000 magnetization 
 augmentation part        0.1224390 magnetization 

 Broyden mixing:
  rms(total) = 0.14563E-01    rms(broyden)= 0.14563E-01
  rms(prec ) = 0.14812E-01
  weight for this iteration     100.00

 eigenvalues of (default mixing * dielectric matrix)
  average eigenvalue GAMMA=   1.7140
  5.2158  3.4881  2.2469  2.2469  1.3902  0.8466  0.8466  0.9388  0.9388  0.9471
  0.8151  0.6467

 Free energy of the ion-electron system (eV)
  ---------------------------------------------------
  alpha Z        PSCENC =         0.01522463
  Ewald energy   TEWEN  =       560.46884254
  -Hartree energ DENC   =     -1353.34223936
  -exchange      EXHF   =         0.00000000
  -V(xc)+E(xc)   XCENC  =        64.93798474
  PAW double counting   =      6812.25210541    -6815.23101031
  entropy T*S    EENTRO =        -0.00000000
  eigenvalues    EBANDS =      -212.07139130
  atomic energy  EATOM  =       914.70769713
  Solvation  Ediel_sol  =         0.00000000
  ---------------------------------------------------
  free energy    TOTEN  =       -28.26278652 eV

  energy without entropy =      -28.26278652  energy(sigma->0) =      -28.26278652


--------------------------------------------------------------------------------------------------------




--------------------------------------- Iteration      1(  18)  ---------------------------------------


    POTLOK:  cpu time   27.3698: real time   27.4109
    SETDIJ:  cpu time    0.0650: real time    0.0650
     EDDAV:  cpu time   13.8848: real time   13.9090
       DOS:  cpu time    0.0028: real time    0.0028
    CHARGE:  cpu time    3.6970: real time    3.7023
    MIXING:  cpu time    1.0098: real time    1.0114
    --------------------------------------------
      LOOP:  cpu time   46.0291: real time   46.1015

 eigenvalue-minimisations  :    36
 total energy-change (2. order) :-0.7664511E-02  (-0.1533762E-03)
 number of electron      16.0000000 magnetization 
 augmentation part        0.1224875 magnetization 

 Broyden mixing:
  rms(total) = 0.18208E-01    rms(broyden)= 0.18208E-01
  rms(prec ) = 0.18226E-01
  weight for this iteration     100.00

 eigenvalues of (default mixing * dielectric matrix)
  average eigenvalue GAMMA=   1.6668
  6.1291  3.2367  2.2694  2.2694  0.7837  0.7837  0.9467  0.9467  1.0657  1.0657
  0.7884  0.7884  0.5946

 Free energy of the ion-electron system (eV)
  ---------------------------------------------------
  alpha Z        PSCENC =         0.01522463
  Ewald energy   TEWEN  =       560.46884254
  -Hartree energ DENC   =     -1353.98433520
  -exchange      EXHF   =         0.00000000
  -V(xc)+E(xc)   XCENC  =        64.93122062
  PAW double counting   =      6840.45341475    -6843.43084181
  entropy T*S    EENTRO =        -0.00000000
  eigenvalues    EBANDS =      -211.43167369
  atomic energy  EATOM  =       914.70769713
  Solvation  Ediel_sol  =         0.00000000
  ---------------------------------------------------
  free energy    TOTEN  =       -28.27045103 eV

  energy without entropy =      -28.27045103  energy(sigma->0) =      -28.27045103


--------------------------------------------------------------------------------------------------------




--------------------------------------- Iteration      1(  19)  ---------------------------------------


    POTLOK:  cpu time   27.4433: real time   27.4841
    SETDIJ:  cpu time    0.0544: real time    0.0544
     EDDAV:  cpu time   14.9632: real time   14.9884
       DOS:  cpu time    0.0033: real time    0.0033
    CHARGE:  cpu time    3.6616: real time    3.6669
    MIXING:  cpu time    1.0740: real time    1.0757
    --------------------------------------------
      LOOP:  cpu time   47.1998: real time   47.2729

 eigenvalue-minimisations  :    40
 total energy-change (2. order) :-0.2435860E-03  (-0.4471873E-05)
 number of electron      16.0000000 magnetization 
 augmentation part        0.1223859 magnetization 

 Broyden mixing:
  rms(total) = 0.14583E-01    rms(broyden)= 0.14583E-01
  rms(prec ) = 0.14600E-01
  weight for this iteration     100.00

 eigenvalues of (default mixing * dielectric matrix)
  average eigenvalue GAMMA=   1.5651
  6.1269  3.2427  2.2613  2.2613  0.7648  0.7648  0.9447  0.9447  1.0514  1.0514
  0.8020  0.7533  0.6102  0.3321

 Free energy of the ion-electron system (eV)
  ---------------------------------------------------
  alpha Z        PSCENC =         0.01522463
  Ewald energy   TEWEN  =       560.46884254
  -Hartree energ DENC   =     -1354.05065814
  -exchange      EXHF   =         0.00000000
  -V(xc)+E(xc)   XCENC  =        64.93160363
  PAW double counting   =      6836.55420198    -6839.53165467
  entropy T*S    EENTRO =        -0.00000000
  eigenvalues    EBANDS =      -211.36595173
  atomic energy  EATOM  =       914.70769713
  Solvation  Ediel_sol  =         0.00000000
  ---------------------------------------------------
  free energy    TOTEN  =       -28.27069462 eV

  energy without entropy =      -28.27069462  energy(sigma->0) =      -28.27069462


--------------------------------------------------------------------------------------------------------




--------------------------------------- Iteration      1(  20)  ---------------------------------------


    POTLOK:  cpu time   27.3995: real time   27.4404
    SETDIJ:  cpu time    0.0599: real time    0.0599
     EDDAV:  cpu time   13.8503: real time   13.8724
       DOS:  cpu time    0.0065: real time    0.0065
    CHARGE:  cpu time    3.6099: real time    3.6151
    MIXING:  cpu time    1.2014: real time    1.2033
    --------------------------------------------
      LOOP:  cpu time   46.1274: real time   46.1977

 eigenvalue-minimisations  :    36
 total energy-change (2. order) :-0.2558098E-03  (-0.2013573E-05)
 number of electron      16.0000000 magnetization 
 augmentation part        0.1223799 magnetization 

 Broyden mixing:
  rms(total) = 0.97458E-02    rms(broyden)= 0.97458E-02
  rms(prec ) = 0.97648E-02
  weight for this iteration     100.00

 eigenvalues of (default mixing * dielectric matrix)
  average eigenvalue GAMMA=   1.6820
  6.7418  3.0572  2.4174  2.4174  1.3943  1.3943  0.9811  0.9811  1.0036  1.0036
  0.8472  0.8472  0.7790  0.7790  0.5859

 Free energy of the ion-electron system (eV)
  ---------------------------------------------------
  alpha Z        PSCENC =         0.01522463
  Ewald energy   TEWEN  =       560.46884254
  -Hartree energ DENC   =     -1354.05411001
  -exchange      EXHF   =         0.00000000
  -V(xc)+E(xc)   XCENC  =        64.93107172
  PAW double counting   =      6833.15788071    -6836.13531452
  entropy T*S    EENTRO =        -0.00000000
  eigenvalues    EBANDS =      -211.36224263
  atomic energy  EATOM  =       914.70769713
  Solvation  Ediel_sol  =         0.00000000
  ---------------------------------------------------
  free energy    TOTEN  =       -28.27095043 eV

  energy without entropy =      -28.27095043  energy(sigma->0) =      -28.27095043


--------------------------------------------------------------------------------------------------------




--------------------------------------- Iteration      1(  21)  ---------------------------------------


    POTLOK:  cpu time   27.4085: real time   27.4489
    SETDIJ:  cpu time    0.0771: real time    0.0771
     EDDAV:  cpu time   13.9785: real time   14.0004
       DOS:  cpu time    0.0067: real time    0.0067
    CHARGE:  cpu time    3.6816: real time    3.6869
    MIXING:  cpu time    1.1715: real time    1.1734
    --------------------------------------------
      LOOP:  cpu time   46.3239: real time   46.3935

 eigenvalue-minimisations  :    36
 total energy-change (2. order) :-0.9211483E-03  (-0.4354043E-05)
 number of electron      16.0000000 magnetization 
 augmentation part        0.1223327 magnetization 

 Broyden mixing:
  rms(total) = 0.32979E-02    rms(broyden)= 0.32979E-02
  rms(prec ) = 0.33213E-02
  weight for this iteration     100.00

 eigenvalues of (default mixing * dielectric matrix)
  average eigenvalue GAMMA=   1.7670
  7.3920  3.8007  2.8480  2.2323  1.1074  1.1074  1.4957  1.4957  0.9876  0.9876
  1.0525  0.8535  0.8535  0.7356  0.7356  0.5876

 Free energy of the ion-electron system (eV)
  ---------------------------------------------------
  alpha Z        PSCENC =         0.01522463
  Ewald energy   TEWEN  =       560.46884254
  -Hartree energ DENC   =     -1354.12740166
  -exchange      EXHF   =         0.00000000
  -V(xc)+E(xc)   XCENC  =        64.93136479
  PAW double counting   =      6820.94554926    -6823.92317943
  entropy T*S    EENTRO =        -0.00000000
  eigenvalues    EBANDS =      -211.28996884
  atomic energy  EATOM  =       914.70769713
  Solvation  Ediel_sol  =         0.00000000
  ---------------------------------------------------
  free energy    TOTEN  =       -28.27187157 eV

  energy without entropy =      -28.27187157  energy(sigma->0) =      -28.27187157


--------------------------------------------------------------------------------------------------------




--------------------------------------- Iteration      1(  22)  ---------------------------------------


    POTLOK:  cpu time   27.3443: real time   27.3867
    SETDIJ:  cpu time    0.0642: real time    0.0642
     EDDAV:  cpu time   14.9269: real time   14.9512
       DOS:  cpu time    0.0058: real time    0.0058
    CHARGE:  cpu time    3.6045: real time    3.6098
    MIXING:  cpu time    1.2895: real time    1.2916
    --------------------------------------------
      LOOP:  cpu time   47.2352: real time   47.3093

 eigenvalue-minimisations  :    40
 total energy-change (2. order) :-0.6460238E-03  (-0.3824660E-05)
 number of electron      16.0000000 magnetization 
 augmentation part        0.1223014 magnetization 

 Broyden mixing:
  rms(total) = 0.61499E-02    rms(broyden)= 0.61499E-02
  rms(prec ) = 0.61571E-02
  weight for this iteration     100.00

 eigenvalues of (default mixing * dielectric matrix)
  average eigenvalue GAMMA=   1.8055
  7.6987  4.0803  2.6279  2.3962  2.3962  1.3736  1.3736  1.0053  1.0053  1.0350
  1.0350  0.8653  0.8653  0.8238  0.8238  0.7022  0.5861

 Free energy of the ion-electron system (eV)
  ---------------------------------------------------
  alpha Z        PSCENC =         0.01522463
  Ewald energy   TEWEN  =       560.46884254
  -Hartree energ DENC   =     -1354.15840092
  -exchange      EXHF   =         0.00000000
  -V(xc)+E(xc)   XCENC  =        64.93130454
  PAW double counting   =      6821.35763428    -6824.33542746
  entropy T*S    EENTRO =        -0.00000000
  eigenvalues    EBANDS =      -211.25939234
  atomic energy  EATOM  =       914.70769713
  Solvation  Ediel_sol  =         0.00000000
  ---------------------------------------------------
  free energy    TOTEN  =       -28.27251760 eV

  energy without entropy =      -28.27251760  energy(sigma->0) =      -28.27251760


--------------------------------------------------------------------------------------------------------




--------------------------------------- Iteration      1(  23)  ---------------------------------------


    POTLOK:  cpu time   27.4025: real time   27.4443
    SETDIJ:  cpu time    0.0599: real time    0.0599
     EDDAV:  cpu time   12.5953: real time   12.6173
       DOS:  cpu time    0.0053: real time    0.0053
    CHARGE:  cpu time    3.6579: real time    3.6632
    MIXING:  cpu time    1.3272: real time    1.3293
    --------------------------------------------
      LOOP:  cpu time   45.0480: real time   45.1193

 eigenvalue-minimisations  :    32
 total energy-change (2. order) :-0.3425666E-03  (-0.1168386E-05)
 number of electron      16.0000000 magnetization 
 augmentation part        0.1223174 magnetization 

 Broyden mixing:
  rms(total) = 0.32982E-02    rms(broyden)= 0.32982E-02
  rms(prec ) = 0.33028E-02
  weight for this iteration     100.00

 eigenvalues of (default mixing * dielectric matrix)
  average eigenvalue GAMMA=   1.8318
  8.1410  4.7672  2.6067  2.6067  2.1837  1.4814  1.4814  1.0091  1.0091  0.9118
  0.9118  1.0091  0.9891  0.9891  0.8133  0.7358  0.7358  0.5893

 Free energy of the ion-electron system (eV)
  ---------------------------------------------------
  alpha Z        PSCENC =         0.01522463
  Ewald energy   TEWEN  =       560.46884254
  -Hartree energ DENC   =     -1354.16319235
  -exchange      EXHF   =         0.00000000
  -V(xc)+E(xc)   XCENC  =        64.93044516
  PAW double counting   =      6822.94351660    -6825.92120743
  entropy T*S    EENTRO =        -0.00000000
  eigenvalues    EBANDS =      -211.25418645
  atomic energy  EATOM  =       914.70769713
  Solvation  Ediel_sol  =         0.00000000
  ---------------------------------------------------
  free energy    TOTEN  =       -28.27286016 eV

  energy without entropy =      -28.27286016  energy(sigma->0) =      -28.27286016


--------------------------------------------------------------------------------------------------------




--------------------------------------- Iteration      1(  24)  ---------------------------------------


    POTLOK:  cpu time   27.3013: real time   27.3430
    SETDIJ:  cpu time    0.0626: real time    0.0626
     EDDAV:  cpu time   14.9513: real time   14.9756
       DOS:  cpu time    0.0055: real time    0.0055
    CHARGE:  cpu time    3.5882: real time    3.5936
    MIXING:  cpu time    1.4792: real time    1.4815
    --------------------------------------------
      LOOP:  cpu time   47.3881: real time   47.4618

 eigenvalue-minimisations  :    40
 total energy-change (2. order) :-0.1348464E-03  (-0.9618621E-06)
 number of electron      16.0000000 magnetization 
 augmentation part        0.1223172 magnetization 

 Broyden mixing:
  rms(total) = 0.56861E-03    rms(broyden)= 0.56861E-03
  rms(prec ) = 0.57713E-03
  weight for this iteration     100.00

 eigenvalues of (default mixing * dielectric matrix)
  average eigenvalue GAMMA=   1.7536
  8.1224  4.8236  2.6288  2.6288  2.1621  1.4721  1.4721  0.9849  0.9849  1.0499
  0.9305  0.9305  0.9553  0.9553  0.7956  0.7276  0.7276  0.5861  0.3801

 Free energy of the ion-electron system (eV)
  ---------------------------------------------------
  alpha Z        PSCENC =         0.01522463
  Ewald energy   TEWEN  =       560.46884254
  -Hartree energ DENC   =     -1354.15792056
  -exchange      EXHF   =         0.00000000
  -V(xc)+E(xc)   XCENC  =        64.92987598
  PAW double counting   =      6823.92429352    -6826.90193654
  entropy T*S    EENTRO =        -0.00000000
  eigenvalues    EBANDS =      -211.25907171
  atomic energy  EATOM  =       914.70769713
  Solvation  Ediel_sol  =         0.00000000
  ---------------------------------------------------
  free energy    TOTEN  =       -28.27299501 eV

  energy without entropy =      -28.27299501  energy(sigma->0) =      -28.27299501


--------------------------------------------------------------------------------------------------------




--------------------------------------- Iteration      1(  25)  ---------------------------------------


    POTLOK:  cpu time   27.3027: real time   27.3446
    SETDIJ:  cpu time    0.0543: real time    0.0544
     EDDAV:  cpu time   10.4803: real time   10.4977
       DOS:  cpu time    0.0028: real time    0.0028
    CHARGE:  cpu time    3.6903: real time    3.6957
    MIXING:  cpu time    1.6397: real time    1.6423
    --------------------------------------------
      LOOP:  cpu time   43.1701: real time   43.2375

 eigenvalue-minimisations  :    24
 total energy-change (2. order) :-0.3091361E-04  (-0.5348716E-07)
 number of electron      16.0000000 magnetization 
 augmentation part        0.1223163 magnetization 

 Broyden mixing:
  rms(total) = 0.88165E-03    rms(broyden)= 0.88165E-03
  rms(prec ) = 0.88630E-03
  weight for this iteration     100.00

 eigenvalues of (default mixing * dielectric matrix)
  average eigenvalue GAMMA=   1.7915
  8.4350  5.0119  2.8407  2.5539  1.5624  1.5624  1.9195  1.2939  1.2939  1.0734
  1.0734  1.0202  1.0202  0.8724  0.8724  0.7602  0.7602  0.6661  0.6661  0.5724

 Free energy of the ion-electron system (eV)
  ---------------------------------------------------
  alpha Z        PSCENC =         0.01522463
  Ewald energy   TEWEN  =       560.46884254
  -Hartree energ DENC   =     -1354.15645326
  -exchange      EXHF   =         0.00000000
  -V(xc)+E(xc)   XCENC  =        64.92977711
  PAW double counting   =      6823.25067479    -6826.22833118
  entropy T*S    EENTRO =        -0.00000000
  eigenvalues    EBANDS =      -211.26045769
  atomic energy  EATOM  =       914.70769713
  Solvation  Ediel_sol  =         0.00000000
  ---------------------------------------------------
  free energy    TOTEN  =       -28.27302592 eV

  energy without entropy =      -28.27302592  energy(sigma->0) =      -28.27302592


--------------------------------------------------------------------------------------------------------




--------------------------------------- Iteration      1(  26)  ---------------------------------------


    POTLOK:  cpu time   27.3196: real time   27.3635
    SETDIJ:  cpu time    0.0558: real time    0.0558
     EDDAV:  cpu time   12.6985: real time   12.7190
       DOS:  cpu time    0.0059: real time    0.0059
    CHARGE:  cpu time    3.6063: real time    3.6118
    MIXING:  cpu time    1.6271: real time    1.6298
    --------------------------------------------
      LOOP:  cpu time   45.3132: real time   45.3857

 eigenvalue-minimisations  :    32
 total energy-change (2. order) :-0.6848266E-04  (-0.7719957E-07)
 number of electron      16.0000000 magnetization 
 augmentation part        0.1223205 magnetization 

 Broyden mixing:
  rms(total) = 0.56577E-03    rms(broyden)= 0.56577E-03
  rms(prec ) = 0.56866E-03
  weight for this iteration     100.00

 eigenvalues of (default mixing * dielectric matrix)
  average eigenvalue GAMMA=   1.8719
  8.7887  5.6606  3.1758  2.6957  2.6957  1.4858  1.4858  1.8909  1.0045  1.0045
  1.1157  1.0057  1.0057  1.0110  0.8946  0.8946  0.7517  0.7517  0.7003  0.7003
  0.5908

 Free energy of the ion-electron system (eV)
  ---------------------------------------------------
  alpha Z        PSCENC =         0.01522463
  Ewald energy   TEWEN  =       560.46884254
  -Hartree energ DENC   =     -1354.15679173
  -exchange      EXHF   =         0.00000000
  -V(xc)+E(xc)   XCENC  =        64.92956362
  PAW double counting   =      6821.92324151    -6824.90086881
  entropy T*S    EENTRO =        -0.00000000
  eigenvalues    EBANDS =      -211.26000331
  atomic energy  EATOM  =       914.70769713
  Solvation  Ediel_sol  =         0.00000000
  ---------------------------------------------------
  free energy    TOTEN  =       -28.27309441 eV

  energy without entropy =      -28.27309441  energy(sigma->0) =      -28.27309441


--------------------------------------------------------------------------------------------------------




--------------------------------------- Iteration      1(  27)  ---------------------------------------


    POTLOK:  cpu time   27.2456: real time   27.2862
    SETDIJ:  cpu time    0.0670: real time    0.0670
     EDDAV:  cpu time   12.6311: real time   12.6514
       DOS:  cpu time    0.0101: real time    0.0101
    CHARGE:  cpu time    3.6848: real time    3.6900
    MIXING:  cpu time    1.6156: real time    1.6182
    --------------------------------------------
      LOOP:  cpu time   45.2542: real time   45.3230

 eigenvalue-minimisations  :    32
 total energy-change (2. order) :-0.6827782E-04  (-0.6853516E-07)
 number of electron      16.0000000 magnetization 
 augmentation part        0.1223243 magnetization 

 Broyden mixing:
  rms(total) = 0.23366E-03    rms(broyden)= 0.23366E-03
  rms(prec ) = 0.23546E-03
  weight for this iteration     100.00

 eigenvalues of (default mixing * dielectric matrix)
  average eigenvalue GAMMA=   1.8623
  8.9198  5.9297  3.4994  2.8611  2.4415  1.4806  1.4806  1.8665  1.0507  1.0507
  1.2045  0.9722  0.9722  0.9045  0.9045  0.9649  0.9649  0.8319  0.7157  0.7157
  0.5902  0.6491

 Free energy of the ion-electron system (eV)
  ---------------------------------------------------
  alpha Z        PSCENC =         0.01522463
  Ewald energy   TEWEN  =       560.46884254
  -Hartree energ DENC   =     -1354.15680842
  -exchange      EXHF   =         0.00000000
  -V(xc)+E(xc)   XCENC  =        64.92936459
  PAW double counting   =      6822.47168624    -6825.44930345
  entropy T*S    EENTRO =        -0.00000000
  eigenvalues    EBANDS =      -211.25986595
  atomic energy  EATOM  =       914.70769713
  Solvation  Ediel_sol  =         0.00000000
  ---------------------------------------------------
  free energy    TOTEN  =       -28.27316268 eV

  energy without entropy =      -28.27316268  energy(sigma->0) =      -28.27316268


--------------------------------------------------------------------------------------------------------




--------------------------------------- Iteration      1(  28)  ---------------------------------------


    POTLOK:  cpu time   27.2563: real time   27.2969
    SETDIJ:  cpu time    0.0590: real time    0.0590
     EDDAV:  cpu time   10.3731: real time   10.3895
       DOS:  cpu time    0.0042: real time    0.0042
    CHARGE:  cpu time    3.6720: real time    3.6772
    MIXING:  cpu time    1.7356: real time    1.7384
    --------------------------------------------
      LOOP:  cpu time   43.1002: real time   43.1652

 eigenvalue-minimisations  :    24
 total energy-change (2. order) :-0.1824614E-04  (-0.6738132E-08)
 number of electron      16.0000000 magnetization 
 augmentation part        0.1223249 magnetization 

 Broyden mixing:
  rms(total) = 0.34869E-03    rms(broyden)= 0.34869E-03
  rms(prec ) = 0.34935E-03
  weight for this iteration     100.00

 eigenvalues of (default mixing * dielectric matrix)
  average eigenvalue GAMMA=   1.9435
  9.2390  6.2322  4.0453  2.7399  2.7399  2.4664  1.4917  1.4917  1.4501  1.4501
  1.0127  1.0127  1.0413  1.0413  0.8939  0.8939  0.9906  0.9906  0.6975  0.6975
  0.5901  0.7659  0.7264

 Free energy of the ion-electron system (eV)
  ---------------------------------------------------
  alpha Z        PSCENC =         0.01522463
  Ewald energy   TEWEN  =       560.46884254
  -Hartree energ DENC   =     -1354.15704820
  -exchange      EXHF   =         0.00000000
  -V(xc)+E(xc)   XCENC  =        64.92930138
  PAW double counting   =      6822.51025760    -6825.48786723
  entropy T*S    EENTRO =        -0.00000000
  eigenvalues    EBANDS =      -211.25958879
  atomic energy  EATOM  =       914.70769713
  Solvation  Ediel_sol  =         0.00000000
  ---------------------------------------------------
  free energy    TOTEN  =       -28.27318093 eV

  energy without entropy =      -28.27318093  energy(sigma->0) =      -28.27318093


--------------------------------------------------------------------------------------------------------




--------------------------------------- Iteration      1(  29)  ---------------------------------------


    POTLOK:  cpu time   27.1618: real time   27.2028
    SETDIJ:  cpu time    0.0528: real time    0.0529
     EDDAV:  cpu time    8.1581: real time    8.1709
       DOS:  cpu time    0.0082: real time    0.0082
    CHARGE:  cpu time    3.6505: real time    3.6555
    MIXING:  cpu time    2.0321: real time    2.0352
    --------------------------------------------
      LOOP:  cpu time   41.0635: real time   41.1254

 eigenvalue-minimisations  :    16
 total energy-change (2. order) :-0.2001203E-04  (-0.9905238E-08)
 number of electron      16.0000000 magnetization 
 augmentation part        0.1223254 magnetization 

 Broyden mixing:
  rms(total) = 0.21102E-03    rms(broyden)= 0.21102E-03
  rms(prec ) = 0.21132E-03
  weight for this iteration     100.00

 eigenvalues of (default mixing * dielectric matrix)
  average eigenvalue GAMMA=   1.9319
  9.3635  6.4134  4.5086  2.6807  2.6807  2.4521  1.4853  1.4853  1.6011  1.3941
  1.0197  1.0197  1.0509  1.0509  1.0288  1.0288  0.8856  0.8856  0.8567  0.6967
  0.6967  0.5903  0.7645  0.7258

 Free energy of the ion-electron system (eV)
  ---------------------------------------------------
  alpha Z        PSCENC =         0.01522463
  Ewald energy   TEWEN  =       560.46884254
  -Hartree energ DENC   =     -1354.15940865
  -exchange      EXHF   =         0.00000000
  -V(xc)+E(xc)   XCENC  =        64.92932992
  PAW double counting   =      6822.72079520    -6825.69840720
  entropy T*S    EENTRO =        -0.00000000
  eigenvalues    EBANDS =      -211.25727452
  atomic energy  EATOM  =       914.70769713
  Solvation  Ediel_sol  =         0.00000000
  ---------------------------------------------------
  free energy    TOTEN  =       -28.27320094 eV

  energy without entropy =      -28.27320094  energy(sigma->0) =      -28.27320094


--------------------------------------------------------------------------------------------------------




--------------------------------------- Iteration      1(  30)  ---------------------------------------


    POTLOK:  cpu time   27.2131: real time   27.2541
    SETDIJ:  cpu time    0.0711: real time    0.0711
     EDDAV:  cpu time    8.4012: real time    8.4142
       DOS:  cpu time    0.0039: real time    0.0039
    CHARGE:  cpu time    3.5581: real time    3.5637
    MIXING:  cpu time    1.9690: real time    1.9721
    --------------------------------------------
      LOOP:  cpu time   41.2164: real time   41.2791

 eigenvalue-minimisations  :    16
 total energy-change (2. order) :-0.3253760E-05  (-0.4710262E-08)
 number of electron      16.0000000 magnetization 
 augmentation part        0.1223243 magnetization 

 Broyden mixing:
  rms(total) = 0.94342E-04    rms(broyden)= 0.94342E-04
  rms(prec ) = 0.94656E-04
  weight for this iteration     100.00

 eigenvalues of (default mixing * dielectric matrix)
  average eigenvalue GAMMA=   1.9438
  9.3530  6.6602  4.6756  3.0844  2.5320  2.1636  2.1636  1.4828  1.4828  1.2421
  1.2421  1.0355  1.0355  1.2192  1.0121  1.0121  1.0254  0.8916  0.8916  0.8950
  0.6988  0.6988  0.5902  0.7937  0.7143

 Free energy of the ion-electron system (eV)
  ---------------------------------------------------
  alpha Z        PSCENC =         0.01522463
  Ewald energy   TEWEN  =       560.46884254
  -Hartree energ DENC   =     -1354.16079680
  -exchange      EXHF   =         0.00000000
  -V(xc)+E(xc)   XCENC  =        64.92938118
  PAW double counting   =      6822.67521376    -6825.65283583
  entropy T*S    EENTRO =        -0.00000000
  eigenvalues    EBANDS =      -211.25593081
  atomic energy  EATOM  =       914.70769713
  Solvation  Ediel_sol  =         0.00000000
  ---------------------------------------------------
  free energy    TOTEN  =       -28.27320420 eV

  energy without entropy =      -28.27320420  energy(sigma->0) =      -28.27320420


--------------------------------------------------------------------------------------------------------




--------------------------------------- Iteration      1(  31)  ---------------------------------------


    POTLOK:  cpu time   27.2032: real time   27.2434
    SETDIJ:  cpu time    0.0541: real time    0.0541
     EDDAV:  cpu time    8.0520: real time    8.0646
       DOS:  cpu time    0.0050: real time    0.0050
    CHARGE:  cpu time    3.6319: real time    3.6381
    MIXING:  cpu time    1.9570: real time    1.9602
    --------------------------------------------
[...]
       DOS:  cpu time    0.0036: real time    0.0036
    CHARGE:  cpu time    3.5930: real time    3.5982
    MIXING:  cpu time    2.1937: real time    2.1973
    --------------------------------------------
      LOOP:  cpu time   43.4971: real time   43.5628

 eigenvalue-minimisations  :    24
 total energy-change (2. order) :-0.4101698E-06  (-0.2123873E-08)
 number of electron      16.0000000 magnetization 
 augmentation part        0.1223229 magnetization 

 Broyden mixing:
  rms(total) = 0.85675E-04    rms(broyden)= 0.85675E-04
  rms(prec ) = 0.85756E-04
  weight for this iteration     100.00

 eigenvalues of (default mixing * dielectric matrix)
  average eigenvalue GAMMA=   1.9503
  9.5695  7.1388  5.3534  3.8030  2.3956  2.3956  2.0764  2.0764  1.4831  1.4831
  1.5293  1.1894  1.1894  1.0355  1.0355  1.1001  1.1001  0.9945  0.9945  0.8899
  0.8899  0.6984  0.6984  0.8143  0.8143  0.7144  0.5902  0.5555

 Free energy of the ion-electron system (eV)
  ---------------------------------------------------
  alpha Z        PSCENC =         0.01522463
  Ewald energy   TEWEN  =       560.46884254
  -Hartree energ DENC   =     -1354.16186022
  -exchange      EXHF   =         0.00000000
  -V(xc)+E(xc)   XCENC  =        64.92942460
  PAW double counting   =      6822.74689183    -6825.72451712
  entropy T*S    EENTRO =        -0.00000000
  eigenvalues    EBANDS =      -211.25491424
  atomic energy  EATOM  =       914.70769713
  Solvation  Ediel_sol  =         0.00000000
  ---------------------------------------------------
  free energy    TOTEN  =       -28.27321084 eV

  energy without entropy =      -28.27321084  energy(sigma->0) =      -28.27321084


--------------------------------------------------------------------------------------------------------




--------------------------------------- Iteration      1(  34)  ---------------------------------------


    POTLOK:  cpu time   27.1697: real time   27.2107
    SETDIJ:  cpu time    0.0558: real time    0.0558
     EDDAV:  cpu time    8.5096: real time    8.5225
       DOS:  cpu time    0.0014: real time    0.0014
    CHARGE:  cpu time    3.6553: real time    3.6606
    MIXING:  cpu time    2.2335: real time    2.2372
    --------------------------------------------
      LOOP:  cpu time   41.6252: real time   41.6882

 eigenvalue-minimisations  :    16
 total energy-change (2. order) :-0.4917456E-06  (-0.1842102E-08)
 number of electron      16.0000000 magnetization 
 augmentation part        0.1223230 magnetization 

 Broyden mixing:
  rms(total) = 0.53275E-04    rms(broyden)= 0.53275E-04
  rms(prec ) = 0.53333E-04
  weight for this iteration     100.00

 eigenvalues of (default mixing * dielectric matrix)
  average eigenvalue GAMMA=   1.9324
  9.5744  7.1922  5.3836  3.8956  2.4775  2.4775  2.3362  1.4825  1.4825  1.6440
  1.6440  1.2436  1.2436  1.0193  1.0193  1.0758  1.0758  1.1750  1.0742  0.8828
  0.8828  0.8588  0.5902  0.7875  0.7142  0.7042  0.7042  0.6992  0.6992

 Free energy of the ion-electron system (eV)
  ---------------------------------------------------
  alpha Z        PSCENC =         0.01522463
  Ewald energy   TEWEN  =       560.46884254
  -Hartree energ DENC   =     -1354.16151875
  -exchange      EXHF   =         0.00000000
  -V(xc)+E(xc)   XCENC  =        64.92940756
  PAW double counting   =      6822.73594788    -6825.71357086
  entropy T*S    EENTRO =        -0.00000000
  eigenvalues    EBANDS =      -211.25524147
  atomic energy  EATOM  =       914.70769713
  Solvation  Ediel_sol  =         0.00000000
  ---------------------------------------------------
  free energy    TOTEN  =       -28.27321133 eV

  energy without entropy =      -28.27321133  energy(sigma->0) =      -28.27321133


--------------------------------------------------------------------------------------------------------




--------------------------------------- Iteration      1(  35)  ---------------------------------------


    POTLOK:  cpu time   27.1591: real time   27.2000
    SETDIJ:  cpu time    0.0726: real time    0.0726
     EDDAV:  cpu time    8.1029: real time    8.1158
       DOS:  cpu time    0.0031: real time    0.0031
    CHARGE:  cpu time    3.6199: real time    3.6251
    MIXING:  cpu time    2.4072: real time    2.4112
    --------------------------------------------
      LOOP:  cpu time   41.3648: real time   41.4278

 eigenvalue-minimisations  :    16
 total energy-change (2. order) :-0.3665741E-06  (-0.1836638E-08)
 number of electron      16.0000000 magnetization 
 augmentation part        0.1223233 magnetization 

 Broyden mixing:
  rms(total) = 0.18082E-04    rms(broyden)= 0.18082E-04
  rms(prec ) = 0.18113E-04
  weight for this iteration     100.00

 eigenvalues of (default mixing * dielectric matrix)
  average eigenvalue GAMMA=   1.9081
  9.5699  7.1999  5.3826  3.8037  2.5914  2.2239  2.2239  1.4820  1.4820  1.9012
  1.9012  1.3228  1.3228  1.0289  1.0289  1.1067  1.1067  1.0341  1.0341  0.8986
  0.8986  0.8923  0.8923  0.8618  0.6981  0.6981  0.7835  0.7195  0.5902  0.5626

 Free energy of the ion-electron system (eV)
  ---------------------------------------------------
  alpha Z        PSCENC =         0.01522463
  Ewald energy   TEWEN  =       560.46884254
  -Hartree energ DENC   =     -1354.16127443
  -exchange      EXHF   =         0.00000000
  -V(xc)+E(xc)   XCENC  =        64.92939528
  PAW double counting   =      6822.74662470    -6825.72424601
  entropy T*S    EENTRO =        -0.00000000
  eigenvalues    EBANDS =      -211.25547554
  atomic energy  EATOM  =       914.70769713
  Solvation  Ediel_sol  =         0.00000000
  ---------------------------------------------------
  free energy    TOTEN  =       -28.27321170 eV

  energy without entropy =      -28.27321170  energy(sigma->0) =      -28.27321170


--------------------------------------------------------------------------------------------------------




--------------------------------------- Iteration      1(  36)  ---------------------------------------


    POTLOK:  cpu time   27.1565: real time   27.2002
    SETDIJ:  cpu time    0.0488: real time    0.0488
     EDDAV:  cpu time   10.4680: real time   10.4844
       DOS:  cpu time    0.0062: real time    0.0062
    CHARGE:  cpu time    3.6472: real time    3.6526
    MIXING:  cpu time    2.5051: real time    2.5093
    --------------------------------------------
      LOOP:  cpu time   43.8318: real time   43.9014

 eigenvalue-minimisations  :    24
 total energy-change (2. order) :-0.1887638E-06  (-0.1679927E-08)
 number of electron      16.0000000 magnetization 
 augmentation part        0.1223232 magnetization 

 Broyden mixing:
  rms(total) = 0.61491E-05    rms(broyden)= 0.61491E-05
  rms(prec ) = 0.62130E-05
  weight for this iteration     100.00

 eigenvalues of (default mixing * dielectric matrix)
  average eigenvalue GAMMA=   1.9559
  9.6466  7.5569  5.6262  4.4360  2.8661  2.6217  2.6217  1.4832  1.4832  1.8571
  1.8571  1.4600  1.4600  1.1505  1.1505  1.0345  1.0345  1.0084  1.0084  0.9909
  0.8901  0.8901  0.7882  0.7882  0.6978  0.6978  0.8018  0.8018  0.7133  0.5902
  0.6195

 Free energy of the ion-electron system (eV)
  ---------------------------------------------------
  alpha Z        PSCENC =         0.01522463
  Ewald energy   TEWEN  =       560.46884254
  -Hartree energ DENC   =     -1354.16137062
  -exchange      EXHF   =         0.00000000
  -V(xc)+E(xc)   XCENC  =        64.92939862
  PAW double counting   =      6822.71458487    -6825.69220740
  entropy T*S    EENTRO =        -0.00000000
  eigenvalues    EBANDS =      -211.25538166
  atomic energy  EATOM  =       914.70769713
  Solvation  Ediel_sol  =         0.00000000
  ---------------------------------------------------
  free energy    TOTEN  =       -28.27321188 eV

  energy without entropy =      -28.27321188  energy(sigma->0) =      -28.27321188


--------------------------------------------------------------------------------------------------------




--------------------------------------- Iteration      1(  37)  ---------------------------------------


    POTLOK:  cpu time   27.1448: real time   27.1854
    SETDIJ:  cpu time    0.0613: real time    0.0614
     EDDAV:  cpu time    8.2216: real time    8.2343
       DOS:  cpu time    0.0014: real time    0.0014
    CHARGE:  cpu time    3.6448: real time    3.6499
    MIXING:  cpu time    2.6447: real time    2.6489
    --------------------------------------------
      LOOP:  cpu time   41.7186: real time   41.7813

 eigenvalue-minimisations  :    16
 total energy-change (2. order) :-0.2291799E-06  (-0.1631715E-08)
 number of electron      16.0000000 magnetization 
 augmentation part        0.1223233 magnetization 

 Broyden mixing:
  rms(total) = 0.38777E-05    rms(broyden)= 0.38777E-05
  rms(prec ) = 0.39424E-05
  weight for this iteration     100.00

 eigenvalues of (default mixing * dielectric matrix)
  average eigenvalue GAMMA=   1.9230
  9.6617  7.6068  5.7052  4.4465  2.7991  2.7991  2.6526  1.4831  1.4831  1.8273
  1.8273  1.5015  1.5015  1.1502  1.1502  1.0351  1.0351  0.7740  0.7740  1.0028
  1.0028  0.9941  0.8839  0.8839  0.7978  0.7978  0.6984  0.6984  0.6945  0.6945
  0.5904  0.5835

 Free energy of the ion-electron system (eV)
  ---------------------------------------------------
  alpha Z        PSCENC =         0.01522463
  Ewald energy   TEWEN  =       560.46884254
  -Hartree energ DENC   =     -1354.16127567
  -exchange      EXHF   =         0.00000000
  -V(xc)+E(xc)   XCENC  =        64.92939352
  PAW double counting   =      6822.69268513    -6825.67030726
  entropy T*S    EENTRO =        -0.00000000
  eigenvalues    EBANDS =      -211.25547214
  atomic energy  EATOM  =       914.70769713
  Solvation  Ediel_sol  =         0.00000000
  ---------------------------------------------------
  free energy    TOTEN  =       -28.27321211 eV

  energy without entropy =      -28.27321211  energy(sigma->0) =      -28.27321211


--------------------------------------------------------------------------------------------------------




--------------------------------------- Iteration      1(  38)  ---------------------------------------


    POTLOK:  cpu time   27.1725: real time   27.2129
    SETDIJ:  cpu time    0.0606: real time    0.0606
     EDDAV:  cpu time   10.4567: real time   10.4735
       DOS:  cpu time    0.0053: real time    0.0053
    --------------------------------------------
      LOOP:  cpu time   37.6951: real time   37.7523

 eigenvalue-minimisations  :    24
 total energy-change (2. order) :-0.2320280E-07  (-0.1591639E-08)
 number of electron      16.0000000 magnetization 
 augmentation part        0.1223233 magnetization 

 Free energy of the ion-electron system (eV)
  ---------------------------------------------------
  alpha Z        PSCENC =         0.01522463
  Ewald energy   TEWEN  =       560.46884254
  -Hartree energ DENC   =     -1354.16129414
  -exchange      EXHF   =         0.00000000
  -V(xc)+E(xc)   XCENC  =        64.92939442
  PAW double counting   =      6822.69651103    -6825.67413336
  entropy T*S    EENTRO =        -0.00000000
  eigenvalues    EBANDS =      -211.25545439
  atomic energy  EATOM  =       914.70769713
  Solvation  Ediel_sol  =         0.00000000
  ---------------------------------------------------
  free energy    TOTEN  =       -28.27321214 eV

  energy without entropy =      -28.27321214  energy(sigma->0) =      -28.27321214


--------------------------------------------------------------------------------------------------------




 average (electrostatic) potential at core
  the test charge radii are     0.4325  0.5955
  (the norm of the test charge is              1.0000)
       1 -47.1590       2 -47.1570       3 -47.1600       4 -47.1535       5-119.0253
       6-119.0242
 
 
 
 E-fermi :  -6.4199     XC(G=0):  -0.0336     alpha+bet : -0.0063


 k-point     1 :       0.0000    0.0000    0.0000
  band No.  band energies     occupation 
      1     -24.9012      2.00000
      2     -24.7544      2.00000
      3     -12.6885      2.00000
      4     -12.5589      2.00000
      5      -9.4595      2.00000
      6      -7.8921      2.00000
      7      -6.8547      2.00000
      8      -6.5185      2.00000
      9      -0.8825      0.00000
     10      -0.3766      0.00000
     11      -0.0015      0.00000
     12       0.0989      0.00000


--------------------------------------------------------------------------------------------------------


 soft charge-density along one line, spin component            1
         0         1         2         3         4         5         6         7         8         9
 total charge-density along one line
 
 pseudopotential strength for first ion, spin component:            1
 -2.533  -5.385  -0.006  -0.008   0.000
 -5.385 -11.425  -0.013  -0.018   0.000
 -0.006  -0.013  -1.383   0.011  -0.000
 -0.008  -0.018   0.011  -1.374  -0.000
  0.000   0.000  -0.000  -0.000  -1.391
 total augmentation occupancy for first ion, spin component:            1
  4.241  -0.795   0.223   0.300  -0.007
 -0.795   0.178  -0.044  -0.056   0.001
  0.223  -0.044   0.017   0.013  -0.000
  0.300  -0.056   0.013   0.023  -0.000
 -0.007   0.001  -0.000  -0.000   0.011


------------------------ aborting loop because EDIFF is reached ----------------------------------------



 DIPCOR: dipole corrections for dipol
 direction  1 min pos   478, direction  2 min pos   514, direction  3 min pos   496,
 dipolmoment          -0.014692      0.000735      0.017587 electrons x Angstroem
 Tr[quadrupol]         4.763240

 energy correction for charged system         0.000000 eV
 dipol+quadrupol energy correction            0.000000 eV
 added-field ion interaction          0.000000 eV  (added to PSCEN)

 
  *************** adding dipol energy to TOTEN NOW **************** 
    CHARGE:  cpu time    3.5220: real time    3.5301
    FORLOC:  cpu time    1.2845: real time    1.2860
    FORNL :  cpu time    0.3830: real time    0.3835
    STRESS:  cpu time    6.0189: real time    6.0279
    FORCOR:  cpu time   25.6327: real time   25.6706
    FORHAR:  cpu time    7.8340: real time    7.8458
    MIXING:  cpu time    2.6825: real time    2.6869
    OFIELD:  cpu time    0.0000: real time    0.0000

  FORCE on cell =-STRESS in cart. coord.  units (eV):
  Direction    XX          YY          ZZ          XY          YZ          ZX
  --------------------------------------------------------------------------------------
  Alpha Z     0.01522     0.01522     0.01522
  Ewald     -49.84057   410.67520   199.63365     2.59604     1.56274    -3.99558
  Hartree   334.38876   640.33800   379.43443     0.66972     0.01465    -0.72247
  E(xc)     -74.57289   -73.77349   -73.46162     0.01112     0.00894    -0.01784
  Local    -608.79357 -1329.35449  -824.05075    -2.50453    -0.89383     3.44648
  n-local   -50.55636   -45.37669   -39.37627     0.09140     0.11612    -0.17860
  augment     2.18091     1.23332     0.64595    -0.01604    -0.01208     0.02469
  Kinetic   447.17412   398.92579   358.16687    -0.83531    -0.77229     1.42692
  Fock        0.00000     0.00000     0.00000     0.00000     0.00000     0.00000
  -------------------------------------------------------------------------------------
  Total      -0.00437     2.68287     1.00749     0.01240     0.02424    -0.01640
  in kB      -0.00016     0.10025     0.03765     0.00046     0.00091    -0.00061
  external pressure =        0.05 kB  Pullay stress =        0.00 kB


 VOLUME and BASIS-vectors are now :
 -----------------------------------------------------------------------------
  energy-cutoff  :     2000.00
  volume of cell :    42875.00
      direct lattice vectors                 reciprocal lattice vectors
    35.000000000  0.000000000  0.000000000     0.028571429  0.000000000  0.000000000
     0.000000000 35.000000000  0.000000000     0.000000000  0.028571429  0.000000000
     0.000000000  0.000000000 35.000000000     0.000000000  0.000000000  0.028571429

  length of vectors
    35.000000000 35.000000000 35.000000000     0.028571429  0.028571429  0.028571429


 FORCES acting on ions
    electron-ion (+dipol)            ewald-force                    non-local-force                 convergence-correction
 -----------------------------------------------------------------------------------------------
   -.172E+01 0.619E+02 0.754E+02   0.188E+01 -.672E+02 -.827E+02   -.160E+00 0.498E+01 0.696E+01   0.129E-06 -.470E-05 -.400E-05
   0.135E+01 0.627E+02 -.748E+02   -.148E+01 -.681E+02 0.820E+02   0.124E+00 0.506E+01 -.690E+01   -.197E-07 -.467E-05 0.389E-05
   -.278E+01 -.589E+02 0.776E+02   0.305E+01 0.639E+02 -.851E+02   -.259E+00 -.468E+01 0.716E+01   -.509E-06 -.777E-05 0.968E-05
   -.118E+01 -.655E+02 -.724E+02   0.130E+01 0.712E+02 0.794E+02   -.112E+00 -.534E+01 -.669E+01   -.301E-06 -.871E-05 -.896E-05
   0.341E+00 0.388E+02 -.571E+00   -.528E+00 0.156E+02 0.918E+00   0.186E+00 -.545E+02 -.355E+00   0.151E-05 -.261E-04 0.539E-06
   0.235E+01 -.389E+02 -.290E+01   -.423E+01 -.154E+02 0.543E+01   0.186E+01 0.544E+02 -.249E+01   -.441E-05 -.136E-04 0.686E-06
 -----------------------------------------------------------------------------------------------
   -.164E+01 0.715E-01 0.232E+01   0.888E-15 0.000E+00 0.178E-14   0.164E+01 -.715E-01 -.232E+01   -.360E-05 -.656E-04 0.183E-05
 
 
 POSITION                                       TOTAL-FORCE (eV/Angst)
 -----------------------------------------------------------------------------------
      0.01761      0.64046     34.23865         0.007450     -0.331123     -0.334456
     34.98662      0.63163      0.75455        -0.006944     -0.327582      0.333647
      0.02970      4.28138     34.21499         0.013031      0.303634     -0.349294
      0.01365      4.35327      0.72944         0.006516      0.353236      0.317613
      0.00000      1.22721      0.00000        -0.001039     -0.104893     -0.007766
      0.00000      3.72721      0.00000        -0.019014      0.106728      0.040255
 -----------------------------------------------------------------------------------
    total drift:                               -0.000005      0.000005      0.000003


--------------------------------------------------------------------------------------------------------



  FREE ENERGIE OF THE ION-ELECTRON SYSTEM (eV)
  ---------------------------------------------------
  free  energy   TOTEN  =       -28.27321177 eV

  energy  without entropy=      -28.27321177  energy(sigma->0) =      -28.27321177
 


--------------------------------------------------------------------------------------------------------


    POTLOK:  cpu time   27.2541: real time   27.2947


--------------------------------------------------------------------------------------------------------


 writing wavefunctions
     LOOP+:  cpu time 2541.0348: real time 2550.6449
    4ORBIT:  cpu time    0.0000: real time    0.0000

 total amount of memory used by VASP MPI-rank0  4207116. kBytes
=======================================================================

   base      :      30000. kBytes
   nonl-proj :     121908. kBytes
   fftplans  :    1475802. kBytes
   grid      :    2553282. kBytes
   one-center:          1. kBytes
   wavefun   :      26123. kBytes
 
  
  
 General timing and accounting informations for this job:
 ========================================================
  
                  Total CPU time used (sec):     3531.241
                            User time (sec):     3399.347
                          System time (sec):      131.895
                         Elapsed time (sec):     3556.442
  
                   Maximum memory used (kb):     5270996.
                   Average memory used (kb):           0.
  
                          Minor page faults:     85330105
                          Major page faults:          157
                 Voluntary context switches:        26940
