 vasp.5.4.1 24Jun15 (build Jan 02 2020 16:21:29) gamma-only                     
  
 executed on           IFC15_impi date 2020.08.27  10:26:47
 running on   32 total cores
 distrk:  each k-point on   32 cores,    1 groups
 distr:  one band on NCORES_PER_BAND=   8 cores,    4 groups


--------------------------------------------------------------------------------------------------------


 INCAR:
 POTCAR:    PAW_PBE N_s 07Sep2000                 
 POTCAR:    PAW_PBE C_s 06Sep2000                 
 POTCAR:    PAW_PBE H_s 15May2010                 
 POTCAR:    PAW_PBE N_s 07Sep2000                 
   VRHFIN =N: s2p3                                                              
   LEXCH  = PE                                                                  
   EATOM  =   264.5486 eV,   19.4438 Ry                                         
                                                                                
   TITEL  = PAW_PBE N_s 07Sep2000                                               
   LULTRA =        F    use ultrasoft PP ?                                      
   IUNSCR =        0    unscreen: 0-lin 1-nonlin 2-no                           
   RPACOR =    0.000    partial core radius                                     
   POMASS =   14.001; ZVAL   =    5.000    mass and valenz                      
   RCORE  =    1.850    outmost cutoff radius                                   
   RWIGS  =    1.850; RWIGS  =    0.979    wigner-seitz radius (au A)           
   ENMAX  =  279.692; ENMIN  =  209.769 eV                                      
   RCLOC  =    0.803    cutoff for local pot                                    
   LCOR   =        T    correct aug charges                                     
   LPAW   =        T    paw PP                                                  
   EAUG   =  384.743                                                            
   DEXC   =    0.000                                                            
   RMAX   =    1.893    core radius for proj-oper                               
   RAUG   =    1.300    factor for augmentation sphere                          
   RDEP   =    1.933    radius for radial grids                                 
   RDEPT  =    1.632    core radius for aug-charge                              
                                                                                
   Atomic configuration                                                         
    4 entries                                                                   
     n  l   j            E        occ.                                          
     1  0  0.50      -384.7179   2.0000                                         
     2  0  0.50       -18.5828   2.0000                                         
     2  1  0.50        -7.0898   3.0000                                         
     3  2  1.50        -1.3606   0.0000                                         
   Description                                                                  
     l       E           TYP  RCUT    TYP  RCUT                                 
     0    -18.5828119     23  1.500                                             
     0    -19.9433945     23  1.500                                             
     1     -7.0897853     23  1.850                                             
     1     -4.8150613     23  1.850                                             
  local pseudopotential read in
  atomic valenz-charges read in
  non local Contribution for L=           0  read in
    real space projection operators read in
  non local Contribution for L=           0  read in
    real space projection operators read in
  non local Contribution for L=           1  read in
    real space projection operators read in
  non local Contribution for L=           1  read in
    real space projection operators read in
    PAW grid and wavefunctions read in
 
   number of l-projection  operators is LMAX  =           4
   number of lm-projection operators is LMMAX =           8
 
 POTCAR:    PAW_PBE C_s 06Sep2000                 
   VRHFIN =C: s2p2                                                              
   LEXCH  = PE                                                                  
   EATOM  =   147.1560 eV,   10.8157 Ry                                         
                                                                                
   TITEL  = PAW_PBE C_s 06Sep2000                                               
   LULTRA =        F    use ultrasoft PP ?                                      
   IUNSCR =        0    unscreen: 0-lin 1-nonlin 2-no                           
   RPACOR =    0.000    partial core radius                                     
   POMASS =   12.011; ZVAL   =    4.000    mass and valenz                      
   RCORE  =    1.850    outmost cutoff radius                                   
   RWIGS  =    1.890; RWIGS  =    1.000    wigner-seitz radius (au A)           
   ENMAX  =  273.911; ENMIN  =  205.433 eV                                      
   RCLOC  =    0.804    cutoff for local pot                                    
   LCOR   =        T    correct aug charges                                     
   LPAW   =        T    paw PP                                                  
   EAUG   =  439.243                                                            
   DEXC   =    0.000                                                            
   RMAX   =    1.897    core radius for proj-oper                               
   RAUG   =    1.300    factor for augmentation sphere                          
   RDEP   =    1.940    radius for radial grids                                 
   RDEPT  =    1.573    core radius for aug-charge                              
                                                                                
   Atomic configuration                                                         
    4 entries                                                                   
     n  l   j            E        occ.                                          
     1  0  0.50      -273.3789   2.0000                                         
     2  0  0.50       -13.7508   2.0000                                         
     2  1  0.50        -5.2854   2.0000                                         
     3  2  1.50        -1.3606   0.0000                                         
   Description                                                                  
     l       E           TYP  RCUT    TYP  RCUT                                 
     0    -13.7508457     23  1.500                                             
     0    -11.0934578     23  1.500                                             
     1     -5.2854381     23  1.850                                             
     1     -1.3099858     23  1.850                                             
  local pseudopotential read in
  atomic valenz-charges read in
  non local Contribution for L=           0  read in
    real space projection operators read in
  non local Contribution for L=           0  read in
    real space projection operators read in
  non local Contribution for L=           1  read in
    real space projection operators read in
  non local Contribution for L=           1  read in
    real space projection operators read in
    PAW grid and wavefunctions read in
 
   number of l-projection  operators is LMAX  =           4
   number of lm-projection operators is LMMAX =           8
 
 POTCAR:    PAW_PBE H_s 15May2010                 
   VRHFIN =H: ultrasoft test                                                    
   LEXCH  = PE                                                                  
   EATOM  =    12.4884 eV,    0.9179 Ry                                         
                                                                                
   TITEL  = PAW_PBE H_s 15May2010                                               
   LULTRA =        F    use ultrasoft PP ?                                      
   IUNSCR =        0    unscreen: 0-lin 1-nonlin 2-no                           
   RPACOR =    0.000    partial core radius                                     
   POMASS =    1.000; ZVAL   =    1.000    mass and valenz                      
   RCORE  =    1.300    outmost cutoff radius                                   
   RWIGS  =    0.700; RWIGS  =    0.370    wigner-seitz radius (au A)           
   ENMAX  =  200.000; ENMIN  =  150.000 eV                                      
   RCLOC  =    0.701    cutoff for local pot                                    
   LCOR   =        T    correct aug charges                                     
   LPAW   =        T    paw PP                                                  
   EAUG   =  300.000                                                            
   RMAX   =    1.330    core radius for proj-oper                               
   RAUG   =    1.200    factor for augmentation sphere                          
   RDEP   =    1.337    radius for radial grids                                 
   RDEPT  =    1.114    core radius for aug-charge                              
                                                                                
   Atomic configuration                                                         
    2 entries                                                                   
     n  l   j            E        occ.                                          
     1  0  0.50        -6.4927   1.0000                                         
     2  1  0.50        -3.4015   0.0000                                         
   Description                                                                  
     l       E           TYP  RCUT    TYP  RCUT                                 
     0     -6.4927494     23  1.300                                             
     0      6.8029130     23  1.300                                             
     1     -4.0817478     23  1.300                                             
  local pseudopotential read in
  atomic valenz-charges read in
  non local Contribution for L=           0  read in
    real space projection operators read in
  non local Contribution for L=           0  read in
    real space projection operators read in
  non local Contribution for L=           1  read in
    real space projection operators read in
    PAW grid and wavefunctions read in
 
   number of l-projection  operators is LMAX  =           3
   number of lm-projection operators is LMMAX =           5
 
  PAW_PBE N_s 07Sep2000                 :
 energy of atom  1       EATOM= -264.5486
 kinetic energy error for atom=    0.0003 (will be added to EATOM!!)
  PAW_PBE C_s 06Sep2000                 :
 energy of atom  2       EATOM= -147.1560
 kinetic energy error for atom=    0.0002 (will be added to EATOM!!)
  PAW_PBE H_s 15May2010                 :
 energy of atom  3       EATOM=  -12.4884
 kinetic energy error for atom=    0.0000 (will be added to EATOM!!)
 
 
 POSCAR: N C H                                   
  positions in cartesian coordinates
  No initial velocities read in
 exchange correlation table for  LEXCH =        8
   RHO(1)=    0.500       N(1)  =     2000
   RHO(2)=  100.500       N(2)  =     4000
 


--------------------------------------------------------------------------------------------------------


 ion  position               nearest neighbor table
   1  0.066  0.000  1.000-   2 1.34   6 1.34
   2  0.085  1.000  0.967-   7 1.08   1 1.34   3 1.39   6 2.29   4 2.39
   3  0.125  0.998  0.966-   8 1.08   4 1.39   2 1.39   5 2.39
   4  0.145  0.998  0.000-   9 1.08   3 1.39   5 1.39   6 2.39   2 2.39
   5  0.125  0.998  0.034-  10 1.08   4 1.39   6 1.39   3 2.39
   6  0.085  1.000  0.033-  11 1.08   1 1.34   5 1.39   2 2.29   4 2.39
   7  0.069  0.000  0.941-   2 1.08
   8  0.140  0.998  0.939-   3 1.08
   9  0.176  0.997  0.000-   4 1.08
  10  0.140  0.998  0.061-   5 1.08
  11  0.069  0.000  0.059-   6 1.08
 
  LATTYP: Found a simple cubic cell.
 ALAT       =    35.0000000000
  
  Lattice vectors:
  
 A1 = (  35.0000000000,   0.0000000000,   0.0000000000)
 A2 = (   0.0000000000,  35.0000000000,   0.0000000000)
 A3 = (   0.0000000000,   0.0000000000,  35.0000000000)


Analysis of symmetry for initial positions (statically):
=====================================================================
 Subroutine PRICEL returns:
 Original cell was already a primitive cell.
 

 Routine SETGRP: Setting up the symmetry group for a 
 simple cubic supercell.


 Subroutine GETGRP returns: Found  1 space group operations
 (whereof  1 operations were pure point group operations)
 out of a pool of 48 trial point group operations.


The static configuration has the point symmetry C_1 .


Analysis of symmetry for dynamics (positions and initial velocities):
=====================================================================
 Subroutine PRICEL returns:
 Original cell was already a primitive cell.
 

 Routine SETGRP: Setting up the symmetry group for a 
 simple cubic supercell.


 Subroutine GETGRP returns: Found  1 space group operations
 (whereof  1 operations were pure point group operations)
 out of a pool of 48 trial point group operations.


The dynamic configuration has the point symmetry C_1 .
 
 
 KPOINTS: automatic mesh                          

Automatic generation of k-mesh.
Space group operators:
 irot       det(A)        alpha          n_x          n_y          n_z        tau_x        tau_y        tau_z
    1     1.000000     0.000000     1.000000     0.000000     0.000000     0.000000     0.000000     0.000000
 
 Subroutine IBZKPT returns following result:
 ===========================================
 
 Found      1 irreducible k-points:
 
 Following reciprocal coordinates:
            Coordinates               Weight
  0.000000  0.000000  0.000000      1.000000
 
 Following cartesian coordinates:
            Coordinates               Weight
  0.000000  0.000000  0.000000      1.000000
 
 
 Subroutine IBZKPT_HF returns following result:
 ==============================================
 
 Found      1 k-points in 1st BZ
 the following      1 k-points will be used (e.g. in the exchange kernel)
 Following reciprocal coordinates:   # in IRBZ
  0.000000  0.000000  0.000000    1.00000000   1 t-inv F


--------------------------------------------------------------------------------------------------------




 Dimension of arrays:
   k-points           NKPTS =      1   k-points in BZ     NKDIM =      1   number of bands    NBANDS=     24
   number of dos      NEDOS =    301   number of ions     NIONS =     11
   non local maximal  LDIM  =      4   non local SUM 2l+1 LMDIM =      8
   total plane-waves  NPLWV = ******
   max r-space proj   IRMAX =      1   max aug-charges    IRDMAX=  32454
   dimension x,y,z NGX =   378 NGY =  378 NGZ =  378
   dimension x,y,z NGXF=   756 NGYF=  756 NGZF=  756
   support grid    NGXF=   756 NGYF=  756 NGZF=  756
   ions per type =               1   5   5
 NGX,Y,Z   is equivalent  to a cutoff of  17.95, 17.95, 17.95 a.u.
 NGXF,Y,Z  is equivalent  to a cutoff of  35.91, 35.91, 35.91 a.u.


 I would recommend the setting:
   dimension x,y,z NGX =   361 NGY =  361 NGZ =  361
 SYSTEM =  C                                       
 POSCAR =  N C H                                   

 Startparameter for this run:
   NWRITE =      2    write-flag & timer
   PREC   = accura    normal or accurate (medium, high low for compatibility)
   ISTART =      1    job   : 0-new  1-cont  2-samecut
   ICHARG =      0    charge: 1-file 2-atom 10-const
   ISPIN  =      1    spin polarized calculation?
   LNONCOLLINEAR =      F non collinear calculations
   LSORBIT =      F    spin-orbit coupling
   INIWAV =      1    electr: 0-lowe 1-rand  2-diag
   LASPH  =      T    aspherical Exc in radial PAW
   METAGGA=      F    non-selfconsistent MetaGGA calc.

 Electronic Relaxation 1
   ENCUT  = 1000.0 eV  73.50 Ry    8.57 a.u.  90.25 90.25 90.25*2*pi/ulx,y,z
   ENINI  = 1000.0     initial cutoff
   ENAUG  =  439.2 eV  augmentation charge cutoff
   NELM   =     60;   NELMIN=  2; NELMDL=  0     # of ELM steps 
   EDIFF  = 0.1E-06   stopping-criterion for ELM
   LREAL  =      F    real-space projection
   NLSPLINE    = F    spline interpolate recip. space projectors
   LCOMPAT=      F    compatible to vasp.4.4
   GGA_COMPAT  = T    GGA compatible to vasp.4.4-vasp.4.6
   LMAXPAW     = -100 max onsite density
   LMAXMIX     =    2 max onsite mixed and CHGCAR
   VOSKOWN=      0    Vosko Wilk Nusair interpolation
   ROPT   =    0.00000   0.00000   0.00000
 Ionic relaxation
   EDIFFG = 0.1E-05   stopping-criterion for IOM
   NSW    =      0    number of steps for IOM
   NBLOCK =      1;   KBLOCK =      1    inner block; outer block 
   IBRION =     -1    ionic relax: 0-MD 1-quasi-New 2-CG
   NFREE  =      0    steps in history (QN), initial steepest desc. (CG)
   ISIF   =      0    stress and relaxation
   IWAVPR =     10    prediction:  0-non 1-charg 2-wave 3-comb
   ISYM   =      3    0-nonsym 1-usesym 2-fastsym
   LCORR  =      T    Harris-Foulkes like correction to forces

   POTIM  = 0.5000    time-step for ionic-motion
   TEIN   =    0.0    initial temperature
   TEBEG  =    0.0;   TEEND  =   0.0 temperature during run
   SMASS  =  -3.00    Nose mass-parameter (am)
   estimated Nose-frequenzy (Omega)   =  0.10E-29 period in steps =****** mass=  -0.280E-25a.u.
   SCALEE = 1.0000    scale energy and forces
   NPACO  =    256;   APACO  = 16.0  distance and # of slots for P.C.
   PSTRESS=    0.0 pullay stress

  Mass of Ions in am
   POMASS =  14.00 12.01  1.00
  Ionic Valenz
   ZVAL   =   5.00  4.00  1.00
  Atomic Wigner-Seitz radii
   RWIGS  =  -1.00 -1.00 -1.00
  virtual crystal weights 
   VCA    =   1.00  1.00  1.00
   NELECT =      30.0000    total number of electrons
   NUPDOWN=      -1.0000    fix difference up-down

 DOS related values:
   EMIN   =  10.00;   EMAX   =-10.00  energy-range for DOS
   EFERMI =   0.00
   ISMEAR =     0;   SIGMA  =   0.01  broadening in eV -4-tet -1-fermi 0-gaus

 Electronic relaxation 2 (details)
   IALGO  =     58    algorithm
   LDIAG  =      T    sub-space diagonalisation (order eigenvalues)
   LSUBROT=      F    optimize rotation matrix (better conditioning)
   TURBO    =      0    0=normal 1=particle mesh
   IRESTART =      0    0=no restart 2=restart with 2 vectors
   NREBOOT  =      0    no. of reboots
   NMIN     =      0    reboot dimension
   EREF     =   0.00    reference energy to select bands
   IMIX   =      4    mixing-type and parameters
     AMIX     =   0.40;   BMIX     =  1.00
     AMIX_MAG =   1.60;   BMIX_MAG =  1.00
     AMIN     =   0.10
     WC   =   100.;   INIMIX=   1;  MIXPRE=   1;  MAXMIX= -45

 Intra band minimization:
   WEIMIN = 0.0000     energy-eigenvalue tresh-hold
   EBREAK =  0.10E-08  absolut break condition
   DEPER  =   0.30     relativ break condition  

   TIME   =   0.40     timestep for ELM

  volume/ion in A,a.u.               =    3897.73     26303.16
  Fermi-wavevector in a.u.,A,eV,Ry     =   0.145338  0.274650  0.287399  0.021123
  Thomas-Fermi vector in A             =   0.812913
 
 Write flags
   LWAVE  =      F    write WAVECAR
   LCHARG =      T    write CHGCAR
   LVTOT  =      F    write LOCPOT, total local potential
   LVHAR  =      F    write LOCPOT, Hartree potential only
   LELF   =      F    write electronic localiz. function (ELF)
   LORBIT =      0    0 simple, 1 ext, 2 COOP (PROOUT)


 Dipole corrections
   LMONO  =      F    monopole corrections only (constant potential shift)
   LDIPOL =      F    correct potential (dipole corrections)
   IDIPOL =      4    1-x, 2-y, 3-z, 4-all directions 
   EPSILON=  1.0000000 bulk dielectric constant

 Exchange correlation treatment:
   GGA     =    --    GGA type
   LEXCH   =     8    internal setting for exchange type
   VOSKOWN=      0    Vosko Wilk Nusair interpolation
   EXXOEP  =     0    0=HF, 1=EXX-LHF (local Hartree Fock) 2=EXX OEP
   LHFCALC =     T    Hartree Fock is set to
   LSYMGRAD=     F    symmetrize gradient (conserves proper symmetry)
   PRECFOCK=normal    Normal, Fast or Accurate (Low or Medium for compatibility)
   LRHFCALC=     F    long range Hartree Fock
   LRSCOR  =     F    long range correlation only (use DFT for short range part)
   LTHOMAS =     F    Thomas Fermi screening in HF
   LMODELHF=     F    short range full HF, long range fraction AEXX
   ENCUT4O =  -1.0   cutoff for four orbital integrals eV
   LMAXFOCK=     4    L truncation for augmentation on plane wave grid
   LMAXFOCKAE=  -1    L truncation for all-electron charge restoration on plane wave grid
   NMAXFOCKAE=   1    number of basis functions for all-electron charge restoration
   LFOCKAEDFT=     F  apply the AE augmentation even for DFT
   NKREDX  =     1    reduce k-point grid by
   NKREDY  =     1    reduce k-point grid by
   NKREDZ  =     1    reduce k-point grid by
   SHIFTRED=     F    shift reduced grid of Gamma
   HFKIDENT=     F    idential grid for each k-point
   ODDONLY =     F    use only odd q-grid points
   EVENONLY=     F    use only even q-grid points
   HFALPHA =   -1.0000 decay constant for conv. correction
   MCALPHA =    0.0000 extent of test-charge in conv. correction in multipole expansion
   AEXX    =    1.0000 exact exchange contribution
   HFSCREEN=    0.0000 screening length (either q_TF or 0.3 A-1)
   HFSCREENC=   0.0000 screening length for correlation (either q_TF or 0.3 A-1)
   HFRCUT  =    0.0000 spherical cutoff for potential kernel
   ALDAX   =    0.0000 LDA exchange part
   AGGAX   =    0.0000 GGA exchange part
   ALDAC   =    0.0000 LDA correlation
   AGGAC   =    0.0000 GGA correlation
   NBANDSGWLOW=     1    first orbital included in HF term
   ENCUTFOCK=  -1.0 apply spherical cutoff to Coloumb kernel
 Linear response parameters
   LEPSILON=     F    determine dielectric tensor
   LRPA    =     F    only Hartree local field effects (RPA)
   LNABLA  =     F    use nabla operator in PAW spheres
   LVEL    =     F    velocity operator in full k-point grid
   LINTERFAST=   F  fast interpolation
   KINTER  =     0    interpolate to denser k-point grid
   CSHIFT  =0.1000    complex shift for real part using Kramers Kronig
   OMEGAMAX=  -1.0    maximum frequency
   DEG_THRESHOLD= 0.2000000E-02 threshold for treating states as degnerate
   RTIME   =    0.100 relaxation time in fs

 Orbital magnetization related:
   ORBITALMAG=     F  switch on orbital magnetization
   LCHIMAG   =     F  perturbation theory with respect to B field
   DQ        =  0.001000  dq finite difference perturbation B field



--------------------------------------------------------------------------------------------------------


 Static calculation
 charge density and potential will be updated during run
 non-spin polarized calculation
 Conjugate gradient for all bands (Freysoldt, et al. PRB 79, 241103 (2009))
 preconditioned conjugated gradient                                        
 perform sub-space diagonalisation
    before iterative eigenvector-optimisation
 modified Broyden-mixing scheme, WC =      100.0
 initial mixing is a Kerker type mixing with AMIX =  0.4000 and BMIX =      1.0000
 Hartree-type preconditioning will be used
 using additional bands            9
 reciprocal scheme for non local part
 no Harris-corrections to forces 
 use gradient corrections 
 use of overlap-Matrix (Vanderbilt PP)
 Gauss-broadening in eV      SIGMA  =   0.01


--------------------------------------------------------------------------------------------------------


  energy-cutoff  :     1000.00
  volume of cell :    42875.00
      direct lattice vectors                 reciprocal lattice vectors
    35.000000000  0.000000000  0.000000000     0.028571429  0.000000000  0.000000000
     0.000000000 35.000000000  0.000000000     0.000000000  0.028571429  0.000000000
     0.000000000  0.000000000 35.000000000     0.000000000  0.000000000  0.028571429

  length of vectors
    35.000000000 35.000000000 35.000000000     0.028571429  0.028571429  0.028571429


 
 old parameters found on file WAVECAR:
  energy-cutoff  :     1000.00
  volume of cell :    42875.00
      direct lattice vectors                 reciprocal lattice vectors
    35.000000000  0.000000000  0.000000000     0.028571429  0.000000000  0.000000000
     0.000000000 35.000000000  0.000000000     0.000000000  0.028571429  0.000000000
     0.000000000  0.000000000 35.000000000     0.000000000  0.000000000  0.028571429

  length of vectors

 
 k-points in units of 2pi/SCALE and weight: automatic mesh                          
   0.00000000  0.00000000  0.00000000       1.000
 
 k-points in reciprocal lattice and weights: automatic mesh                          
   0.00000000  0.00000000  0.00000000       1.000
 
 position of ions in fractional coordinates (direct lattice) 
   0.06552735  0.00043637  0.99995320
   0.08542358  0.99973822  0.96724692
   0.12512750  0.99831699  0.96585592
   0.14542388  0.99758235  0.00001629
   0.12507395  0.99829724  0.03414600
   0.08537242  0.99971866  0.03269017
   0.06872420  0.00040175  0.94121905
   0.13962328  0.99782294  0.93860498
   0.17629062  0.99650335  0.00004055
   0.13952534  0.99778797  0.06141702
   0.06862940  0.00036650  0.05869356
 
 position of ions in cartesian coordinates  (Angst):
   2.29345708  0.01527297 34.99836192
   2.98982547 34.99083764 33.85364232
   4.37946253 34.94109478 33.80495707
   5.08983576 34.91538216  0.00057009
   4.37758831 34.94040327  1.19510995
   2.98803466 34.99015295  1.14415586
   2.40534687  0.01406117 32.94266688
   4.88681488 34.92380274 32.85117434
   6.17017176 34.87761741  0.00141939
   4.88338704 34.92257894  2.14959564
   2.40202888  0.01282738  2.05427455
 


--------------------------------------------------------------------------------------------------------


 use parallel FFT for wavefunctions z direction half grid
 k-point  1 :   0.0000 0.0000 0.0000  plane waves: 1539209

 maximum and minimum number of plane-waves per node :    192406   192397

 maximum number of plane-waves:   1539209
 maximum index in each direction: 
   IXMAX=   90   IYMAX=   90   IZMAX=   90
   IXMIN=  -90   IYMIN=  -90   IZMIN=    0

 NGX is ok and might be reduce to 362
 NGY is ok and might be reduce to 362
 NGZ is ok and might be reduce to 362

 parallel 3D FFT for wavefunctions:
    minimum data exchange during FFTs selected (reduces bandwidth)
 parallel 3D FFT for charge:
    minimum data exchange during FFTs selected (reduces bandwidth)


 FFT grid for exact exchange (Hartree Fock) 
  NGX =280; NGY =280; NGZ =280

 use parallel FFT for wavefunctions z direction half grid
 
 Radii for the augmentation spheres in the non-local exchange
 for species   1 augmentation radius   1.131 (default was   0.905)
       energy cutoff for augmentation   4000.0
 for species   2 augmentation radius   1.059 (default was   0.847)
       energy cutoff for augmentation   4000.0
 for species   3 augmentation radius   0.782 (default was   0.626)
       energy cutoff for augmentation   4000.0

 real space projection operators:
  total allocation   :       1475.09 KBytes
  max/ min on nodes  :        193.71        174.80

 Maximum index for augmentation-charges in exchange          395
  SETUP_FOCK is finished

 total amount of memory used by VASP on root node  2003998. kBytes
========================================================================

   base      :      30000. kBytes
   nonl-proj :      70806. kBytes
   fftplans  :     693297. kBytes
   grid      :    1154248. kBytes
   one-center:          3. kBytes
   HF        :          9. kBytes
   nonlr-proj:        222. kBytes
   wavefun   :      55413. kBytes
 
     INWAV:  cpu time    1.8126: real time    1.9776
 Broyden mixing: mesh for mixing (old mesh)
   NGX =181   NGY =181   NGZ =181
  (NGX  =756   NGY  =756   NGZ  =756)
  gives a total of ****** points

 charge density for first step will be calculated from the start-wavefunctions


--------------------------------------------------------------------------------------------------------


 Maximum index for augmentation-charges         1050 (set IRDMAX)


--------------------------------------------------------------------------------------------------------


 initial charge from wavefunction
 FEWALD executed in parallel
    FEWALD:  cpu time    0.0018: real time    0.0018


----------------------------------------- Iteration    1(   1)  ---------------------------------------


    POTLOK:  cpu time    8.1697: real time    8.1911
    SETDIJ:  cpu time    0.0520: real time    0.0521
    TRIAL :  cpu time   20.3785: real time   20.4625
    CORREC:  cpu time   27.4399: real time   27.5443
    CHARGE:  cpu time    1.1854: real time    1.1898
    --------------------------------------------
      LOOP:  cpu time   57.2737: real time   57.4897

 eigenvalue-minimisations  :     0
 total energy-change (2. order) :-0.1237067E+03  (-0.8143118E+00)
 number of electron      30.0000000 magnetization 
 augmentation part        1.3295722 magnetization 

 Free energy of the ion-electron system (eV)
  ---------------------------------------------------
  alpha Z        PSCENC =         0.06079025
  Ewald energy   TEWEN  =      2321.99035533
  -Hartree energ DENC   =     -3175.28988080
  -exchange      EXHF   =       317.78179506
  -V(xc)+E(xc)   XCENC  =         0.00000000
  PAW double counting   =     10293.29814647   -10292.12755559
  entropy T*S    EENTRO =        -0.00000000
  eigenvalues    EBANDS =      -560.34809764
  atomic energy  EATOM  =       970.92774738
  ---------------------------------------------------
  free energy    TOTEN  =      -123.70669954 eV

  energy without entropy =     -123.70669954  energy(sigma->0) =     -123.70669954
  exchange ACFDT corr.  =        -0.00000000  see jH, gK, PRB 81, 115126


--------------------------------------------------------------------------------------------------------




----------------------------------------- Iteration    1(   2)  ---------------------------------------


    POTLOK:  cpu time    8.0941: real time    8.1138
    SETDIJ:  cpu time    0.0526: real time    0.0527
    TRIAL :  cpu time   20.1897: real time   20.2766
    CORREC:  cpu time   28.2343: real time   28.3393
    CHARGE:  cpu time    1.1769: real time    1.1813
    --------------------------------------------
      LOOP:  cpu time   57.7485: real time   57.9670

 eigenvalue-minimisations  :     0
 total energy-change (2. order) :-0.8128555E+00  (-0.2962419E+00)
 number of electron      30.0000000 magnetization 
 augmentation part        1.3536859 magnetization 

 Free energy of the ion-electron system (eV)
  ---------------------------------------------------
  alpha Z        PSCENC =         0.06079025
  Ewald energy   TEWEN  =      2321.99035533
  -Hartree energ DENC   =     -3158.65648148
  -exchange      EXHF   =       317.26811924
  -V(xc)+E(xc)   XCENC  =         0.00000000
  PAW double counting   =     15074.70770282   -15073.66062761
  entropy T*S    EENTRO =        -0.00000000
  eigenvalues    EBANDS =      -577.15716100
  atomic energy  EATOM  =       970.92774738
  ---------------------------------------------------
  free energy    TOTEN  =      -124.51955506 eV

  energy without entropy =     -124.51955506  energy(sigma->0) =     -124.51955506
  exchange ACFDT corr.  =         0.00000000  see jH, gK, PRB 81, 115126


--------------------------------------------------------------------------------------------------------




----------------------------------------- Iteration    1(   3)  ---------------------------------------


    POTLOK:  cpu time    8.7762: real time    8.7976
    SETDIJ:  cpu time    0.1142: real time    0.1144
    TRIAL :  cpu time   20.3339: real time   20.4225
    CORREC:  cpu time   28.5295: real time   28.6347
    CHARGE:  cpu time    1.1793: real time    1.1837
    --------------------------------------------
      LOOP:  cpu time   58.9521: real time   59.1748

 eigenvalue-minimisations  :     0
 total energy-change (2. order) :-0.2972141E+00  (-0.6911769E-01)
 number of electron      30.0000000 magnetization 
 augmentation part        1.3806001 magnetization 

 Free energy of the ion-electron system (eV)
  ---------------------------------------------------
  alpha Z        PSCENC =         0.06079025
  Ewald energy   TEWEN  =      2321.99035533
  -Hartree energ DENC   =     -3166.37736152
  -exchange      EXHF   =       318.71293355
  -V(xc)+E(xc)   XCENC  =         0.00000000
  PAW double counting   =     14811.00040324   -14809.89415161
  entropy T*S    EENTRO =        -0.00000000
  eigenvalues    EBANDS =      -571.23748580
  atomic energy  EATOM  =       970.92774738
  ---------------------------------------------------
  free energy    TOTEN  =      -124.81676918 eV

  energy without entropy =     -124.81676918  energy(sigma->0) =     -124.81676918
  exchange ACFDT corr.  =         0.00000000  see jH, gK, PRB 81, 115126


--------------------------------------------------------------------------------------------------------




----------------------------------------- Iteration    1(   4)  ---------------------------------------


    POTLOK:  cpu time    8.8117: real time    8.8331
    SETDIJ:  cpu time    0.1154: real time    0.1157
    TRIAL :  cpu time   20.9320: real time   21.0200
    CORREC:  cpu time   28.4381: real time   28.5441
    CHARGE:  cpu time    1.2745: real time    1.2792
    --------------------------------------------
      LOOP:  cpu time   59.5908: real time   59.8140

 eigenvalue-minimisations  :     0
 total energy-change (2. order) :-0.6921582E-01  (-0.1899158E-01)
 number of electron      30.0000000 magnetization 
 augmentation part        1.3848568 magnetization 

 Free energy of the ion-electron system (eV)
  ---------------------------------------------------
  alpha Z        PSCENC =         0.06079025
  Ewald energy   TEWEN  =      2321.99035533
  -Hartree energ DENC   =     -3164.01150291
  -exchange      EXHF   =       318.64681560
  -V(xc)+E(xc)   XCENC  =         0.00000000
  PAW double counting   =     14523.02045229   -14521.95221590
  entropy T*S    EENTRO =        -0.00000000
  eigenvalues    EBANDS =      -573.56842704
  atomic energy  EATOM  =       970.92774738
  ---------------------------------------------------
  free energy    TOTEN  =      -124.88598500 eV

  energy without entropy =     -124.88598500  energy(sigma->0) =     -124.88598500
  exchange ACFDT corr.  =         0.00000000  see jH, gK, PRB 81, 115126


--------------------------------------------------------------------------------------------------------




----------------------------------------- Iteration    1(   5)  ---------------------------------------


    POTLOK:  cpu time    8.8752: real time    8.8968
    SETDIJ:  cpu time    0.1208: real time    0.1211
    TRIAL :  cpu time   20.7737: real time   20.8619
    CORREC:  cpu time   28.5736: real time   28.6797
    CHARGE:  cpu time    1.2545: real time    1.2590
    --------------------------------------------
      LOOP:  cpu time   59.6162: real time   59.8405

 eigenvalue-minimisations  :     0
 total energy-change (2. order) :-0.1899211E-01  (-0.7455761E-02)
 number of electron      30.0000000 magnetization 
 augmentation part        1.3853301 magnetization 

 Free energy of the ion-electron system (eV)
  ---------------------------------------------------
  alpha Z        PSCENC =         0.06079025
  Ewald energy   TEWEN  =      2321.99035533
  -Hartree energ DENC   =     -3164.30738405
  -exchange      EXHF   =       318.76968817
  -V(xc)+E(xc)   XCENC  =         0.00000000
  PAW double counting   =     14626.47059354   -14625.42925123
  entropy T*S    EENTRO =        -0.00000000
  eigenvalues    EBANDS =      -573.38751650
  atomic energy  EATOM  =       970.92774738
  ---------------------------------------------------
  free energy    TOTEN  =      -124.90497711 eV

  energy without entropy =     -124.90497711  energy(sigma->0) =     -124.90497711
  exchange ACFDT corr.  =         0.00000000  see jH, gK, PRB 81, 115126


--------------------------------------------------------------------------------------------------------




----------------------------------------- Iteration    1(   6)  ---------------------------------------


    POTLOK:  cpu time    8.9547: real time    8.9765
    SETDIJ:  cpu time    0.1137: real time    0.1140
    TRIAL :  cpu time   21.3021: real time   21.3928
    CORREC:  cpu time   28.5673: real time   28.6730
    CHARGE:  cpu time    1.2107: real time    1.2153
    --------------------------------------------
      LOOP:  cpu time   60.1667: real time   60.3928

 eigenvalue-minimisations  :     0
 total energy-change (2. order) :-0.7458550E-02  (-0.2959136E-02)
 number of electron      30.0000000 magnetization 
 augmentation part        1.3869739 magnetization 

 Free energy of the ion-electron system (eV)
  ---------------------------------------------------
  alpha Z        PSCENC =         0.06079025
  Ewald energy   TEWEN  =      2321.99035533
  -Hartree energ DENC   =     -3165.07016638
  -exchange      EXHF   =       318.90339426
  -V(xc)+E(xc)   XCENC  =         0.00000000
  PAW double counting   =     14741.71471779   -14740.68120712
  entropy T*S    EENTRO =        -0.00000000
  eigenvalues    EBANDS =      -572.75806717
  atomic energy  EATOM  =       970.92774738
  ---------------------------------------------------
  free energy    TOTEN  =      -124.91243566 eV

  energy without entropy =     -124.91243566  energy(sigma->0) =     -124.91243566
  exchange ACFDT corr.  =         0.00000000  see jH, gK, PRB 81, 115126


--------------------------------------------------------------------------------------------------------




----------------------------------------- Iteration    1(   7)  ---------------------------------------


    POTLOK:  cpu time    8.7544: real time    8.7757
    SETDIJ:  cpu time    0.1165: real time    0.1168
    TRIAL :  cpu time   20.7347: real time   20.8222
    CORREC:  cpu time   28.4418: real time   28.5479
    CHARGE:  cpu time    1.2272: real time    1.2318
    --------------------------------------------
      LOOP:  cpu time   59.2922: real time   59.5150

 eigenvalue-minimisations  :     0
 total energy-change (2. order) :-0.2962831E-02  (-0.1399895E-02)
 number of electron      30.0000000 magnetization 
 augmentation part        1.3885002 magnetization 

 Free energy of the ion-electron system (eV)
  ---------------------------------------------------
  alpha Z        PSCENC =         0.06079025
  Ewald energy   TEWEN  =      2321.99035533
  -Hartree energ DENC   =     -3165.24427391
  -exchange      EXHF   =       318.93336132
  -V(xc)+E(xc)   XCENC  =         0.00000000
  PAW double counting   =     14775.15540215   -14774.12231421
  entropy T*S    EENTRO =        -0.00000000
  eigenvalues    EBANDS =      -572.61646681
  atomic energy  EATOM  =       970.92774738
  ---------------------------------------------------
  free energy    TOTEN  =      -124.91539849 eV

  energy without entropy =     -124.91539849  energy(sigma->0) =     -124.91539849
  exchange ACFDT corr.  =        -0.00000000  see jH, gK, PRB 81, 115126


--------------------------------------------------------------------------------------------------------




----------------------------------------- Iteration    1(   8)  ---------------------------------------


    POTLOK:  cpu time    8.7613: real time    8.7825
    SETDIJ:  cpu time    0.1146: real time    0.1148
    TRIAL :  cpu time   20.4320: real time   20.5186
    CORREC:  cpu time   28.0664: real time   28.1714
    CHARGE:  cpu time    1.1960: real time    1.2005
    --------------------------------------------
      LOOP:  cpu time   58.5894: real time   58.8097

 eigenvalue-minimisations  :     0
 total energy-change (2. order) :-0.1403695E-02  (-0.7453591E-03)
 number of electron      30.0000000 magnetization 
 augmentation part        1.3887128 magnetization 

 Free energy of the ion-electron system (eV)
  ---------------------------------------------------
  alpha Z        PSCENC =         0.06079025
  Ewald energy   TEWEN  =      2321.99035533
  -Hartree energ DENC   =     -3165.17852287
  -exchange      EXHF   =       318.93059434
  -V(xc)+E(xc)   XCENC  =         0.00000000
  PAW double counting   =     14769.52137119   -14768.48906731
  entropy T*S    EENTRO =        -0.00000000
  eigenvalues    EBANDS =      -572.68007050
  atomic energy  EATOM  =       970.92774738
  ---------------------------------------------------
  free energy    TOTEN  =      -124.91680219 eV

  energy without entropy =     -124.91680219  energy(sigma->0) =     -124.91680219
  exchange ACFDT corr.  =         0.00000000  see jH, gK, PRB 81, 115126


--------------------------------------------------------------------------------------------------------




----------------------------------------- Iteration    1(   9)  ---------------------------------------


    POTLOK:  cpu time    8.7529: real time    8.7742
    SETDIJ:  cpu time    0.1146: real time    0.1149
    TRIAL :  cpu time   20.3186: real time   20.4054
    CORREC:  cpu time   28.1218: real time   28.2256
    CHARGE:  cpu time    1.1956: real time    1.2000
    --------------------------------------------
      LOOP:  cpu time   58.5190: real time   58.7382

 eigenvalue-minimisations  :     0
 total energy-change (2. order) :-0.7508071E-03  (-0.4582421E-03)
 number of electron      30.0000000 magnetization 
 augmentation part        1.3889049 magnetization 

 Free energy of the ion-electron system (eV)
  ---------------------------------------------------
  alpha Z        PSCENC =         0.06079025
  Ewald energy   TEWEN  =      2321.99035533
  -Hartree energ DENC   =     -3165.08116732
  -exchange      EXHF   =       318.92994045
  -V(xc)+E(xc)   XCENC  =         0.00000000
  PAW double counting   =     14769.46400264   -14768.43374532
  entropy T*S    EENTRO =        -0.00000000
  eigenvalues    EBANDS =      -572.77547640
  atomic energy  EATOM  =       970.92774738
  ---------------------------------------------------
  free energy    TOTEN  =      -124.91755299 eV

  energy without entropy =     -124.91755299  energy(sigma->0) =     -124.91755299
  exchange ACFDT corr.  =         0.00000000  see jH, gK, PRB 81, 115126


--------------------------------------------------------------------------------------------------------




----------------------------------------- Iteration    1(  10)  ---------------------------------------


    POTLOK:  cpu time    8.7519: real time    8.7731
    SETDIJ:  cpu time    0.1133: real time    0.1136
    TRIAL :  cpu time   20.3984: real time   20.4866
    CORREC:  cpu time   28.0782: real time   28.1827
    CHARGE:  cpu time    1.1938: real time    1.1982
    --------------------------------------------
      LOOP:  cpu time   58.5519: real time   58.7735

 eigenvalue-minimisations  :     0
 total energy-change (2. order) :-0.4640995E-03  (-0.3052118E-03)
 number of electron      30.0000000 magnetization 
 augmentation part        1.3888062 magnetization 

 Free energy of the ion-electron system (eV)
  ---------------------------------------------------
  alpha Z        PSCENC =         0.06079025
  Ewald energy   TEWEN  =      2321.99035533
  -Hartree energ DENC   =     -3165.11482585
  -exchange      EXHF   =       318.93388512
  -V(xc)+E(xc)   XCENC  =         0.00000000
  PAW double counting   =     14761.96695772   -14760.93767496
  entropy T*S    EENTRO =        -0.00000000
  eigenvalues    EBANDS =      -572.74525209
  atomic energy  EATOM  =       970.92774738
  ---------------------------------------------------
  free energy    TOTEN  =      -124.91801709 eV

  energy without entropy =     -124.91801709  energy(sigma->0) =     -124.91801709
  exchange ACFDT corr.  =         0.00000000  see jH, gK, PRB 81, 115126


--------------------------------------------------------------------------------------------------------




----------------------------------------- Iteration    1(  11)  ---------------------------------------


    POTLOK:  cpu time    8.7476: real time    8.7689
    SETDIJ:  cpu time    0.1149: real time    0.1151
    TRIAL :  cpu time   20.4328: real time   20.5419
    CORREC:  cpu time   28.1052: real time   28.2104
    CHARGE:  cpu time    1.2106: real time    1.2151
    --------------------------------------------
      LOOP:  cpu time   58.6284: real time   58.8710

 eigenvalue-minimisations  :     0
 total energy-change (2. order) :-0.3081600E-03  (-0.1839172E-03)
 number of electron      30.0000000 magnetization 
 augmentation part        1.3883535 magnetization 

 Free energy of the ion-electron system (eV)
  ---------------------------------------------------
  alpha Z        PSCENC =         0.06079025
  Ewald energy   TEWEN  =      2321.99035533
  -Hartree energ DENC   =     -3165.14810469
  -exchange      EXHF   =       318.93237918
  -V(xc)+E(xc)   XCENC  =         0.00000000
  PAW double counting   =     14753.26195675   -14752.23235447
  entropy T*S    EENTRO =        -0.00000000
  eigenvalues    EBANDS =      -572.71109499
  atomic energy  EATOM  =       970.92774738
  ---------------------------------------------------
  free energy    TOTEN  =      -124.91832525 eV

  energy without entropy =     -124.91832525  energy(sigma->0) =     -124.91832525
  exchange ACFDT corr.  =         0.00000000  see jH, gK, PRB 81, 115126


--------------------------------------------------------------------------------------------------------




----------------------------------------- Iteration    1(  12)  ---------------------------------------


    POTLOK:  cpu time    8.7604: real time    8.7817
    SETDIJ:  cpu time    0.1125: real time    0.1128
    TRIAL :  cpu time   21.1243: real time   21.2136
    CORREC:  cpu time   28.3942: real time   28.5001
    CHARGE:  cpu time    1.1915: real time    1.1960
    --------------------------------------------
      LOOP:  cpu time   59.6005: real time   59.8243

 eigenvalue-minimisations  :     0
 total energy-change (2. order) :-0.1854283E-03  (-0.8625422E-04)
 number of electron      30.0000000 magnetization 
 augmentation part        1.3880805 magnetization 

 Free energy of the ion-electron system (eV)
  ---------------------------------------------------
  alpha Z        PSCENC =         0.06079025
  Ewald energy   TEWEN  =      2321.99035533
  -Hartree energ DENC   =     -3165.12516345
  -exchange      EXHF   =       318.92794311
  -V(xc)+E(xc)   XCENC  =         0.00000000
  PAW double counting   =     14750.44032491   -14749.41023417
  entropy T*S    EENTRO =        -0.00000000
  eigenvalues    EBANDS =      -572.73027404
  atomic energy  EATOM  =       970.92774738
  ---------------------------------------------------
  free energy    TOTEN  =      -124.91851068 eV

  energy without entropy =     -124.91851068  energy(sigma->0) =     -124.91851068
  exchange ACFDT corr.  =         0.00000000  see jH, gK, PRB 81, 115126


--------------------------------------------------------------------------------------------------------




----------------------------------------- Iteration    1(  13)  ---------------------------------------


    POTLOK:  cpu time    8.7497: real time    8.7710
    SETDIJ:  cpu time    0.1133: real time    0.1135
    TRIAL :  cpu time   20.4100: real time   20.4970
    CORREC:  cpu time   27.9852: real time   28.0900
    CHARGE:  cpu time    1.1911: real time    1.1956
    --------------------------------------------
      LOOP:  cpu time   58.4664: real time   58.6869

 eigenvalue-minimisations  :     0
 total energy-change (2. order) :-0.8639742E-04  (-0.4488549E-04)
 number of electron      30.0000000 magnetization 
 augmentation part        1.3882003 magnetization 

 Free energy of the ion-electron system (eV)
  ---------------------------------------------------
  alpha Z        PSCENC =         0.06079025
  Ewald energy   TEWEN  =      2321.99035533
  -Hartree energ DENC   =     -3165.12321991
  -exchange      EXHF   =       318.92913667
  -V(xc)+E(xc)   XCENC  =         0.00000000
  PAW double counting   =     14752.13603672   -14751.10589978
  entropy T*S    EENTRO =        -0.00000000
  eigenvalues    EBANDS =      -572.73354374
  atomic energy  EATOM  =       970.92774738
  ---------------------------------------------------
  free energy    TOTEN  =      -124.91859708 eV

  energy without entropy =     -124.91859708  energy(sigma->0) =     -124.91859708
  exchange ACFDT corr.  =         0.00000000  see jH, gK, PRB 81, 115126


--------------------------------------------------------------------------------------------------------




----------------------------------------- Iteration    1(  14)  ---------------------------------------


    POTLOK:  cpu time    8.7521: real time    8.7734
    SETDIJ:  cpu time    0.1135: real time    0.1138
    TRIAL :  cpu time   20.3400: real time   20.4272
    CORREC:  cpu time   28.1923: real time   28.2975
    CHARGE:  cpu time    1.1927: real time    1.1973
    --------------------------------------------
      LOOP:  cpu time   58.6069: real time   58.8282

 eigenvalue-minimisations  :     0
 total energy-change (2. order) :-0.4497921E-04  (-0.2151190E-04)
 number of electron      30.0000000 magnetization 
 augmentation part        1.3882892 magnetization 

 Free energy of the ion-electron system (eV)
  ---------------------------------------------------
  alpha Z        PSCENC =         0.06079025
  Ewald energy   TEWEN  =      2321.99035533
  -Hartree energ DENC   =     -3165.15864015
  -exchange      EXHF   =       318.93446221
  -V(xc)+E(xc)   XCENC  =         0.00000000
  PAW double counting   =     14750.42627762   -14749.39603970
  entropy T*S    EENTRO =        -0.00000000
  eigenvalues    EBANDS =      -572.70359499
  atomic energy  EATOM  =       970.92774738
  ---------------------------------------------------
  free energy    TOTEN  =      -124.91864206 eV

  energy without entropy =     -124.91864206  energy(sigma->0) =     -124.91864206
  exchange ACFDT corr.  =        -0.00000000  see jH, gK, PRB 81, 115126


--------------------------------------------------------------------------------------------------------




----------------------------------------- Iteration    1(  15)  ---------------------------------------


    POTLOK:  cpu time    8.7534: real time    8.7747
    SETDIJ:  cpu time    0.1129: real time    0.1131
    TRIAL :  cpu time   20.3233: real time   20.4102
    CORREC:  cpu time   28.1761: real time   28.2811
    CHARGE:  cpu time    1.1934: real time    1.1979
    --------------------------------------------
      LOOP:  cpu time   58.5789: real time   58.7996

 eigenvalue-minimisations  :     0
 total energy-change (2. order) :-0.2154333E-04  (-0.9552901E-05)
 number of electron      30.0000000 magnetization 
 augmentation part        1.3882185 magnetization 

 Free energy of the ion-electron system (eV)
  ---------------------------------------------------
  alpha Z        PSCENC =         0.06079025
  Ewald energy   TEWEN  =      2321.99035533
  -Hartree energ DENC   =     -3165.16990214
  -exchange      EXHF   =       318.93693454
  -V(xc)+E(xc)   XCENC  =         0.00000000
  PAW double counting   =     14750.61934183   -14749.58903996
  entropy T*S    EENTRO =        -0.00000000
  eigenvalues    EBANDS =      -572.69489084
  atomic energy  EATOM  =       970.92774738
  ---------------------------------------------------
  free energy    TOTEN  =      -124.91866360 eV

  energy without entropy =     -124.91866360  energy(sigma->0) =     -124.91866360
  exchange ACFDT corr.  =         0.00000000  see jH, gK, PRB 81, 115126


--------------------------------------------------------------------------------------------------------




----------------------------------------- Iteration    1(  16)  ---------------------------------------


    POTLOK:  cpu time    8.7512: real time    8.7725
    SETDIJ:  cpu time    0.1153: real time    0.1156
    TRIAL :  cpu time   20.2748: real time   20.3613
    CORREC:  cpu time   28.1602: real time   28.2642
    CHARGE:  cpu time    1.1928: real time    1.1973
    --------------------------------------------
      LOOP:  cpu time   58.5140: real time   58.7335

 eigenvalue-minimisations  :     0
 total energy-change (2. order) :-0.9552206E-05  (-0.4622262E-05)
 number of electron      30.0000000 magnetization 
 augmentation part        1.3882106 magnetization 

 Free energy of the ion-electron system (eV)
  ---------------------------------------------------
  alpha Z        PSCENC =         0.06079025
  Ewald energy   TEWEN  =      2321.99035533
  -Hartree energ DENC   =     -3165.15733275
  -exchange      EXHF   =       318.93676277
  -V(xc)+E(xc)   XCENC  =         0.00000000
  PAW double counting   =     14754.06805399   -14753.03782784
  entropy T*S    EENTRO =        -0.00000000
  eigenvalues    EBANDS =      -572.70722228
  atomic energy  EATOM  =       970.92774738
  ---------------------------------------------------
  free energy    TOTEN  =      -124.91867315 eV

  energy without entropy =     -124.91867315  energy(sigma->0) =     -124.91867315
  exchange ACFDT corr.  =         0.00000000  see jH, gK, PRB 81, 115126


--------------------------------------------------------------------------------------------------------




----------------------------------------- Iteration    1(  17)  ---------------------------------------


    POTLOK:  cpu time    8.7567: real time    8.7780
    SETDIJ:  cpu time    0.1139: real time    0.1142
    TRIAL :  cpu time   20.4124: real time   20.4984
    CORREC:  cpu time   28.1954: real time   28.3000
    CHARGE:  cpu time    1.1905: real time    1.1950
    --------------------------------------------
      LOOP:  cpu time   58.6866: real time   58.9060

 eigenvalue-minimisations  :     0
 total energy-change (2. order) :-0.4617843E-05  (-0.2062602E-05)
 number of electron      30.0000000 magnetization 
 augmentation part        1.3882987 magnetization 

 Free energy of the ion-electron system (eV)
  ---------------------------------------------------
  alpha Z        PSCENC =         0.06079025
  Ewald energy   TEWEN  =      2321.99035533
  -Hartree energ DENC   =     -3165.15741891
  -exchange      EXHF   =       318.93748255
  -V(xc)+E(xc)   XCENC  =         0.00000000
  PAW double counting   =     14755.99177519   -14754.96162267
  entropy T*S    EENTRO =        -0.00000000
  eigenvalues    EBANDS =      -572.70778690
  atomic energy  EATOM  =       970.92774738
  ---------------------------------------------------
  free energy    TOTEN  =      -124.91867777 eV

  energy without entropy =     -124.91867777  energy(sigma->0) =     -124.91867777
  exchange ACFDT corr.  =         0.00000000  see jH, gK, PRB 81, 115126


--------------------------------------------------------------------------------------------------------




----------------------------------------- Iteration    1(  18)  ---------------------------------------


    POTLOK:  cpu time    8.7433: real time    8.7646
    SETDIJ:  cpu time    0.1144: real time    0.1147
    TRIAL :  cpu time   20.2874: real time   20.3741
    CORREC:  cpu time   28.1573: real time   28.2620
    CHARGE:  cpu time    1.1921: real time    1.1965
    --------------------------------------------
      LOOP:  cpu time   58.5129: real time   58.7333

 eigenvalue-minimisations  :     0
 total energy-change (2. order) :-0.2059063E-05  (-0.8833913E-06)
 number of electron      30.0000000 magnetization 
 augmentation part        1.3883022 magnetization 

 Free energy of the ion-electron system (eV)
  ---------------------------------------------------
  alpha Z        PSCENC =         0.06079025
  Ewald energy   TEWEN  =      2321.99035533
  -Hartree energ DENC   =     -3165.16612060
  -exchange      EXHF   =       318.93846101
  -V(xc)+E(xc)   XCENC  =         0.00000000
  PAW double counting   =     14755.09301907   -14754.06288061
  entropy T*S    EENTRO =        -0.00000000
  eigenvalues    EBANDS =      -572.70005167
  atomic energy  EATOM  =       970.92774738
  ---------------------------------------------------
  free energy    TOTEN  =      -124.91867983 eV

  energy without entropy =     -124.91867983  energy(sigma->0) =     -124.91867983
  exchange ACFDT corr.  =         0.00000000  see jH, gK, PRB 81, 115126


--------------------------------------------------------------------------------------------------------




----------------------------------------- Iteration    1(  19)  ---------------------------------------


    POTLOK:  cpu time    8.7580: real time    8.7793
    SETDIJ:  cpu time    0.1154: real time    0.1157
    TRIAL :  cpu time   20.3832: real time   20.4706
    CORREC:  cpu time   28.1040: real time   28.2089
    CHARGE:  cpu time    1.1911: real time    1.1956
    --------------------------------------------
      LOOP:  cpu time   58.5685: real time   58.7896

 eigenvalue-minimisations  :     0
 total energy-change (2. order) :-0.8822310E-06  (-0.3986922E-06)
 number of electron      30.0000000 magnetization 
 augmentation part        1.3882821 magnetization 

 Free energy of the ion-electron system (eV)
  ---------------------------------------------------
  alpha Z        PSCENC =         0.06079025
  Ewald energy   TEWEN  =      2321.99035533
  -Hartree energ DENC   =     -3165.16350878
  -exchange      EXHF   =       318.93826877
  -V(xc)+E(xc)   XCENC  =         0.00000000
  PAW double counting   =     14755.20815327   -14754.17805027
  entropy T*S    EENTRO =        -0.00000000
  eigenvalues    EBANDS =      -572.70243667
  atomic energy  EATOM  =       970.92774738
  ---------------------------------------------------
  free energy    TOTEN  =      -124.91868071 eV

  energy without entropy =     -124.91868071  energy(sigma->0) =     -124.91868071
  exchange ACFDT corr.  =         0.00000000  see jH, gK, PRB 81, 115126


--------------------------------------------------------------------------------------------------------




----------------------------------------- Iteration    1(  20)  ---------------------------------------


    POTLOK:  cpu time    8.7371: real time    8.7584
    SETDIJ:  cpu time    0.1138: real time    0.1141
    TRIAL :  cpu time   20.4103: real time   20.4976
    CORREC:  cpu time   28.2704: real time   28.3761
    CHARGE:  cpu time    1.1906: real time    1.1951
    --------------------------------------------
      LOOP:  cpu time   58.7396: real time   58.9616

 eigenvalue-minimisations  :     0
 total energy-change (2. order) :-0.3983757E-06  (-0.1986626E-06)
 number of electron      30.0000000 magnetization 
 augmentation part        1.3882822 magnetization 

 Free energy of the ion-electron system (eV)
  ---------------------------------------------------
  alpha Z        PSCENC =         0.06079025
  Ewald energy   TEWEN  =      2321.99035533
  -Hartree energ DENC   =     -3165.16064386
  -exchange      EXHF   =       318.93799064
  -V(xc)+E(xc)   XCENC  =         0.00000000
  PAW double counting   =     14755.59723101   -14754.56714256
  entropy T*S    EENTRO =        -0.00000000
  eigenvalues    EBANDS =      -572.70500930
  atomic energy  EATOM  =       970.92774738
  ---------------------------------------------------
  free energy    TOTEN  =      -124.91868111 eV

  energy without entropy =     -124.91868111  energy(sigma->0) =     -124.91868111
  exchange ACFDT corr.  =         0.00000000  see jH, gK, PRB 81, 115126


--------------------------------------------------------------------------------------------------------




----------------------------------------- Iteration    1(  21)  ---------------------------------------


    POTLOK:  cpu time    8.7556: real time    8.7769
    SETDIJ:  cpu time    0.1150: real time    0.1153
    TRIAL :  cpu time   20.6528: real time   20.7403
    CORREC:  cpu time   28.2800: real time   28.3858
    CHARGE:  cpu time    1.1914: real time    1.1958
    --------------------------------------------
      LOOP:  cpu time   59.0124: real time   59.2344

 eigenvalue-minimisations  :     0
 total energy-change (2. order) :-0.1982248E-06  (-0.9258224E-07)
 number of electron      30.0000000 magnetization 
 augmentation part        1.3882832 magnetization 

 Free energy of the ion-electron system (eV)
  ---------------------------------------------------
  alpha Z        PSCENC =         0.06079025
  Ewald energy   TEWEN  =      2321.99035533
  -Hartree energ DENC   =     -3165.16289324
  -exchange      EXHF   =       318.93819585
  -V(xc)+E(xc)   XCENC  =         0.00000000
  PAW double counting   =     14755.46946254   -14754.43935887
  entropy T*S    EENTRO =        -0.00000000
  eigenvalues    EBANDS =      -572.70298055
  atomic energy  EATOM  =       970.92774738
  ---------------------------------------------------
  free energy    TOTEN  =      -124.91868131 eV

  energy without entropy =     -124.91868131  energy(sigma->0) =     -124.91868131
  exchange ACFDT corr.  =        -0.00000000  see jH, gK, PRB 81, 115126


--------------------------------------------------------------------------------------------------------




----------------------------------------- Iteration    1(  22)  ---------------------------------------


    POTLOK:  cpu time    8.7478: real time    8.7691
    SETDIJ:  cpu time    0.1155: real time    0.1158
    TRIAL :  cpu time   20.4525: real time   20.5397
    CORREC:  cpu time   28.0475: real time   28.1517
    CHARGE:  cpu time    1.1949: real time    1.1994
    --------------------------------------------
      LOOP:  cpu time   58.5756: real time   58.7957

 eigenvalue-minimisations  :     0
 total energy-change (2. order) :-0.9230644E-07  (-0.4260510E-07)
 number of electron      30.0000000 magnetization 
 augmentation part        1.3882767 magnetization 

 Free energy of the ion-electron system (eV)
  ---------------------------------------------------
  alpha Z        PSCENC =         0.06079025
  Ewald energy   TEWEN  =      2321.99035533
  -Hartree energ DENC   =     -3165.16434537
  -exchange      EXHF   =       318.93833094
  -V(xc)+E(xc)   XCENC  =         0.00000000
  PAW double counting   =     14755.29434429   -14754.26422744
  entropy T*S    EENTRO =        -0.00000000
  eigenvalues    EBANDS =      -572.70167679
  atomic energy  EATOM  =       970.92774738
  ---------------------------------------------------
  free energy    TOTEN  =      -124.91868140 eV

  energy without entropy =     -124.91868140  energy(sigma->0) =     -124.91868140
  exchange ACFDT corr.  =        -0.00000000  see jH, gK, PRB 81, 115126


--------------------------------------------------------------------------------------------------------


  average scaling for gradient   0.7289


 average (electrostatic) potential at core
  the test charge radii are     0.9051  0.8471  0.6256
  (the norm of the test charge is              1.0000)
       1 -63.6016       2 -66.9662       3 -66.1540       4 -66.5915       5 -66.1539
       6 -66.9663       7 -21.1105       8 -21.3077       9 -21.5141      10 -21.3083
      11 -21.1099
 
 
 
 E-fermi :  -9.3833     XC(G=0):   0.0000     alpha+bet : -0.0182


 k-point     1 :       0.0000    0.0000    0.0000
  band No.  band energies     occupation 
      1     -34.2779      2.00000
      2     -29.6862      2.00000
      3     -28.1923      2.00000
      4     -23.3918      2.00000
      5     -23.2986      2.00000
      6     -19.6487      2.00000
      7     -17.9325      2.00000
      8     -17.8007      2.00000
      9     -16.3005      2.00000
     10     -15.6713      2.00000
     11     -14.7510      2.00000
     12     -14.1214      2.00000
     13     -11.3127      2.00000
     14     -10.4544      2.00000
     15      -9.5112      2.00000
     16       0.0128      0.00000
     17       0.1339      0.00000
     18       0.1352      0.00000
     19       0.1379      0.00000
     20       0.1475      0.00000
     21       0.1705      0.00000
     22       0.1859      0.00000
     23       1.4355      0.00000
     24       1.6453      0.00000


--------------------------------------------------------------------------------------------------------


 soft charge-density along one line, spin component           1
         0         1         2         3         4         5         6         7         8         9
 total charge-density along one line
 
 pseudopotential strength for first ion, spin component:           1
 22.302  22.774   0.008  -0.000  -0.216   0.010  -0.000  -0.262
 22.774  23.256   0.008  -0.000  -0.221   0.010  -0.000  -0.268
  0.008   0.008  -1.071   0.000  -0.007  -0.912   0.000  -0.008
 -0.000  -0.000   0.000  -1.158   0.000   0.000  -1.016   0.000
 -0.216  -0.221  -0.007   0.000  -0.880  -0.008   0.000  -0.687
  0.010   0.010  -0.912   0.000  -0.008  -0.649   0.000  -0.010
 -0.000  -0.000   0.000  -1.016   0.000   0.000  -0.771   0.000
 -0.262  -0.268  -0.008   0.000  -0.687  -0.010   0.000  -0.384
 total augmentation occupancy for first ion, spin component:           1
 25.588 -28.066   0.657  -0.014 -18.260  -0.433   0.009  12.064
-28.066  32.035  -0.682   0.015  18.993   0.464  -0.010 -12.954
  0.657  -0.682  15.048  -0.006  -0.135  -9.594   0.005   0.081
 -0.014   0.015  -0.006  35.750  -0.013   0.005 -24.977   0.010
-18.260  18.993  -0.135  -0.013  18.909   0.081   0.010 -11.926
 -0.433   0.464  -9.594   0.005   0.081   6.128  -0.003  -0.056
  0.009  -0.010   0.005 -24.977   0.010  -0.003  17.498  -0.008
 12.064 -12.954   0.081   0.010 -11.926  -0.056  -0.008   7.745


------------------------ aborting loop because EDIFF is reached ----------------------------------------



 DIPCOR: dipole corrections for dipol
 direction  1 min pos   468, direction  2 min pos   425, direction  3 min pos   403,
 dipolmoment          -0.491739      0.016793     -0.000374 electrons x Angstroem
 Tr[quadrupol]        18.948653

 energy correction for charged system         0.000000 eV
 dipol+quadrupol energy correction            0.000170 eV
 added-field ion interaction          0.000000 eV  (added to PSCEN)

 
  *************** adding dipol energy to TOTEN NOW **************** 
    FORLOC:  cpu time    0.8872: real time    0.8894
    FORHF :  cpu time   14.3462: real time   14.3819
    FORNL :  cpu time    0.5446: real time    0.5459
    OFIELD:  cpu time    0.0746: real time    0.0748

 VOLUME and BASIS-vectors are now :
 -----------------------------------------------------------------------------
  energy-cutoff  :     1000.00
  volume of cell :    42875.00
      direct lattice vectors                 reciprocal lattice vectors
    35.000000000  0.000000000  0.000000000     0.028571429  0.000000000  0.000000000
     0.000000000 35.000000000  0.000000000     0.000000000  0.028571429  0.000000000
     0.000000000  0.000000000 35.000000000     0.000000000  0.000000000  0.028571429

  length of vectors
    35.000000000 35.000000000 35.000000000     0.028571429  0.028571429  0.028571429


 FORCES acting on ions:
    Electron-Ion                     Ewald-Force                    Non-Local-Force
 -----------------------------------------------------------------------------------------------
   0.254E+03 -.898E+01 0.197E+00   -.306E+03 0.109E+02 -.237E+00   0.258E+02 -.944E+00 0.198E-01
   0.792E+02 -.280E+01 0.182E+03   -.767E+02 0.272E+01 -.186E+03   -.219E+01 0.713E-01 0.271E+01
   -.967E+02 0.347E+01 0.165E+03   0.963E+02 -.345E+01 -.165E+03   0.640E+00 -.305E-01 -.359E+00
   -.191E+03 0.686E+01 -.150E+00   0.190E+03 -.683E+01 0.150E+00   0.861E+00 -.342E-01 0.114E-02
   -.964E+02 0.357E+01 -.165E+03   0.960E+02 -.354E+01 0.165E+03   0.638E+00 -.306E-01 0.356E+00
   0.795E+02 -.269E+01 -.182E+03   -.770E+02 0.261E+01 0.186E+03   -.219E+01 0.730E-01 -.271E+01
   0.438E+02 -.172E+01 0.715E+02   -.473E+02 0.185E+01 -.767E+02   0.216E+01 -.866E-01 0.327E+01
   -.392E+02 0.135E+01 0.720E+02   0.421E+02 -.145E+01 -.774E+02   -.181E+01 0.618E-01 0.341E+01
   -.816E+02 0.287E+01 -.640E-01   0.878E+02 -.308E+01 0.687E-01   -.389E+01 0.136E+00 -.308E-02
   -.391E+02 0.139E+01 -.721E+02   0.420E+02 -.149E+01 0.775E+02   -.181E+01 0.637E-01 -.342E+01
   0.440E+02 -.167E+01 -.714E+02   -.474E+02 0.180E+01 0.766E+02   0.216E+01 -.846E-01 -.327E+01
 -----------------------------------------------------------------------------------------------
   -.433E+02 0.165E+01 -.320E-01   -.355E-13 -.444E-15 0.426E-13   0.204E+02 -.805E+00 0.148E-01
 
 
 POSITION                                       TOTAL-FORCE (eV/Angst)
 -----------------------------------------------------------------------------------
      2.29346      0.01527     34.99836         0.790112     -0.026227      0.000500
      2.98983     34.99084     33.85364        -0.094363      0.009275      0.429257
      4.37946     34.94109     33.80496        -0.037351      0.002036      0.106545
      5.08984     34.91538      0.00057        -0.388829      0.013606      0.000597
      4.37759     34.94040      1.19511        -0.039048      0.002143     -0.111835
      2.98803     34.99015      1.14416        -0.096174      0.009721     -0.425295
      2.40535      0.01406     32.94267         0.166836     -0.012516      0.221574
      4.88681     34.92380     32.85117        -0.116219      0.003931      0.222645
      6.17017     34.87762      0.00142        -0.239700      0.006520     -0.000335
      4.88339     34.92258      2.14960        -0.114362      0.003945     -0.219558
      2.40203      0.01283      2.05427         0.169098     -0.012434     -0.224095
 -----------------------------------------------------------------------------------
    total drift:                                0.000519      0.000003      0.000013


--------------------------------------------------------------------------------------------------------



  FREE ENERGIE OF THE ION-ELECTRON SYSTEM (eV)
  ---------------------------------------------------
  free  energy   TOTEN  =      -124.91851111 eV

  energy  without entropy=     -124.91851111  energy(sigma->0) =     -124.91851111
 


--------------------------------------------------------------------------------------------------------


    POTLOK:  cpu time    8.8989: real time    8.9205


--------------------------------------------------------------------------------------------------------


     LOOP+:  cpu time 1599.7675: real time 1606.0904
    4ORBIT:  cpu time    0.0000: real time    0.0000

 total amount of memory used by VASP on root node  2003998. kBytes
========================================================================

   base      :      30000. kBytes
   nonl-proj :      70806. kBytes
   fftplans  :     693297. kBytes
   grid      :    1154248. kBytes
   one-center:          3. kBytes
   HF        :          9. kBytes
   nonlr-proj:        222. kBytes
   wavefun   :      55413. kBytes
 
  
  
 General timing and accounting informations for this job:
 ========================================================
  
                  Total CPU time used (sec):     1970.024
                            User time (sec):     1775.262
                          System time (sec):      194.762
                         Elapsed time (sec):     1978.705
  
                   Maximum memory used (kb):     2694792.
                   Average memory used (kb):           0.
  
                          Minor page faults:       516690
                          Major page faults:            0
                 Voluntary context switches:       197456
 
 PROFILE, used timers:      34
 =============================
 
 index                 routine                    time                            calls level
----------------------------------------------------------------------------------------------
    1    total_time                         1978.706372                                1   1
    2      w1_copy                               0.245303                            474   2
    3      fftwav_mpi                           47.772619                            468   2
    4      fftext_mpi                            0.413719                              6   2
    5      overl                                 0.000258                            221   2
    6      orth1                                 0.234238                            111   2
    7      lincom                                0.463558                            133   2
    8      fock_acc                            385.177444                             66   2
    9        w1_copy                               0.293293                          396   3
   10        fftwav_mpi                           20.544015                          396   3
   11        fock_charge_mu                       21.887838                          264   3
   12          racc0mu_hf                            0.624868                        264   4
   13        rpromu_hf                             0.950463                          264   3
   14        overl1                                0.000102                          132   3
   15        fftext_mpi                            5.331998                          132   3
   16      hamilt_local                         13.979028                            132   2
   17        vhamil                                3.215271                          132   3
   18        kinhamil                             10.763428                          132   3
   19          fftext_mpi                           10.679375                        132   4
   20      eccp                                  7.816517                            396   2
   21      w1_dscal                              1.514650                            132   2
   22      pdssyex_zheevx                        0.503439                             44   2
   23      eddiag                              399.940983                             22   2
   24        fock_acc                            384.276673                           66   3
   25          w1_copy                               0.265715                        396   4
   26          fftwav_mpi                           19.877887                        396   4
   27          fock_charge_mu                       21.728456                        264   4
   28            racc0mu_hf                            0.513860                      264   5
   29          rpromu_hf                             0.750142                        264   4
   30          overl1                                0.000114                        132   4
   31          fftext_mpi                            5.266980                        132   4
   32        fftwav_mpi                           13.152769                          132   3
   33        eccp                                  2.111981                          132   3
   34      rpro1_hf                              0.130666                            384   2
 
 Flat profile
 ============
 
             routine name                   CPU           calls
 ---------------------------------------------------------------
 total_time                           1120.513949           1
 fock_acc                              672.557113         132
 fftwav_mpi                            101.347291        1392
 fock_charge_mu                         42.477566         528
 fftext_mpi                             21.692072         402
 eccp                                    9.928498         528
 vhamil                                  3.215271         132
 rpromu_hf                               1.700604         528
 w1_dscal                                1.514650         132
 racc0mu_hf                              1.138728         528
 w1_copy                                 0.804311        1266
 pdssyex_zheevx                          0.503439          44
 lincom                                  0.463558         133
 eddiag                                  0.399560          22
 orth1                                   0.234238         111
 rpro1_hf                                0.130666         384
 kinhamil                                0.084053         132
 hamilt_local                            0.000329         132
 overl                                   0.000258         221
 overl1                                  0.000216         264
 ---------------------------------------------------------------
  summed up times    1978.70637202263     
 
Profiling took   0.007531  0.004391  0.003256  0.003238 seconds
Profiling took   0.003315 seconds
