 vasp.5.4.1 24Jun15 (build Jan 02 2020 16:21:29) gamma-only                     
  
 executed on           IFC15_impi date 2020.08.27  17:54:46
 running on   32 total cores
 distrk:  each k-point on   32 cores,    1 groups
 distr:  one band on NCORES_PER_BAND=   8 cores,    4 groups


--------------------------------------------------------------------------------------------------------


 INCAR:
 POTCAR:    PAW_PBE C_s 06Sep2000                 
 POTCAR:    PAW_PBE H_s 15May2010                 
 POTCAR:    PAW_PBE C_s 06Sep2000                 
   VRHFIN =C: s2p2                                                              
   LEXCH  = PE                                                                  
   EATOM  =   147.1560 eV,   10.8157 Ry                                         
                                                                                
   TITEL  = PAW_PBE C_s 06Sep2000                                               
   LULTRA =        F    use ultrasoft PP ?                                      
   IUNSCR =        0    unscreen: 0-lin 1-nonlin 2-no                           
   RPACOR =    0.000    partial core radius                                     
   POMASS =   12.011; ZVAL   =    4.000    mass and valenz                      
   RCORE  =    1.850    outmost cutoff radius                                   
   RWIGS  =    1.890; RWIGS  =    1.000    wigner-seitz radius (au A)           
   ENMAX  =  273.911; ENMIN  =  205.433 eV                                      
   RCLOC  =    0.804    cutoff for local pot                                    
   LCOR   =        T    correct aug charges                                     
   LPAW   =        T    paw PP                                                  
   EAUG   =  439.243                                                            
   DEXC   =    0.000                                                            
   RMAX   =    1.897    core radius for proj-oper                               
   RAUG   =    1.300    factor for augmentation sphere                          
   RDEP   =    1.940    radius for radial grids                                 
   RDEPT  =    1.573    core radius for aug-charge                              
                                                                                
   Atomic configuration                                                         
    4 entries                                                                   
     n  l   j            E        occ.                                          
     1  0  0.50      -273.3789   2.0000                                         
     2  0  0.50       -13.7508   2.0000                                         
     2  1  0.50        -5.2854   2.0000                                         
     3  2  1.50        -1.3606   0.0000                                         
   Description                                                                  
     l       E           TYP  RCUT    TYP  RCUT                                 
     0    -13.7508457     23  1.500                                             
     0    -11.0934578     23  1.500                                             
     1     -5.2854381     23  1.850                                             
     1     -1.3099858     23  1.850                                             
  local pseudopotential read in
  atomic valenz-charges read in
  non local Contribution for L=           0  read in
    real space projection operators read in
  non local Contribution for L=           0  read in
    real space projection operators read in
  non local Contribution for L=           1  read in
    real space projection operators read in
  non local Contribution for L=           1  read in
    real space projection operators read in
    PAW grid and wavefunctions read in
 
   number of l-projection  operators is LMAX  =           4
   number of lm-projection operators is LMMAX =           8
 
 POTCAR:    PAW_PBE H_s 15May2010                 
   VRHFIN =H: ultrasoft test                                                    
   LEXCH  = PE                                                                  
   EATOM  =    12.4884 eV,    0.9179 Ry                                         
                                                                                
   TITEL  = PAW_PBE H_s 15May2010                                               
   LULTRA =        F    use ultrasoft PP ?                                      
   IUNSCR =        0    unscreen: 0-lin 1-nonlin 2-no                           
   RPACOR =    0.000    partial core radius                                     
   POMASS =    1.000; ZVAL   =    1.000    mass and valenz                      
   RCORE  =    1.300    outmost cutoff radius                                   
   RWIGS  =    0.700; RWIGS  =    0.370    wigner-seitz radius (au A)           
   ENMAX  =  200.000; ENMIN  =  150.000 eV                                      
   RCLOC  =    0.701    cutoff for local pot                                    
   LCOR   =        T    correct aug charges                                     
   LPAW   =        T    paw PP                                                  
   EAUG   =  300.000                                                            
   RMAX   =    1.330    core radius for proj-oper                               
   RAUG   =    1.200    factor for augmentation sphere                          
   RDEP   =    1.337    radius for radial grids                                 
   RDEPT  =    1.114    core radius for aug-charge                              
                                                                                
   Atomic configuration                                                         
    2 entries                                                                   
     n  l   j            E        occ.                                          
     1  0  0.50        -6.4927   1.0000                                         
     2  1  0.50        -3.4015   0.0000                                         
   Description                                                                  
     l       E           TYP  RCUT    TYP  RCUT                                 
     0     -6.4927494     23  1.300                                             
     0      6.8029130     23  1.300                                             
     1     -4.0817478     23  1.300                                             
  local pseudopotential read in
  atomic valenz-charges read in
  non local Contribution for L=           0  read in
    real space projection operators read in
  non local Contribution for L=           0  read in
    real space projection operators read in
  non local Contribution for L=           1  read in
    real space projection operators read in
    PAW grid and wavefunctions read in
 
   number of l-projection  operators is LMAX  =           3
   number of lm-projection operators is LMMAX =           5
 
  PAW_PBE C_s 06Sep2000                 :
 energy of atom  1       EATOM= -147.1560
 kinetic energy error for atom=    0.0002 (will be added to EATOM!!)
  PAW_PBE H_s 15May2010                 :
 energy of atom  2       EATOM=  -12.4884
 kinetic energy error for atom=    0.0000 (will be added to EATOM!!)
 
 
 POSCAR: C H                                     
  positions in cartesian coordinates
  No initial velocities read in
 exchange correlation table for  LEXCH =        8
   RHO(1)=    0.500       N(1)  =     2000
   RHO(2)=  100.500       N(2)  =     4000
 


--------------------------------------------------------------------------------------------------------


 ion  position               nearest neighbor table
   1  0.027  0.975  0.033-   7 1.09   6 1.09   5 1.54   2 1.55
   2  0.028  0.019  0.033-   9 1.09   8 1.09   3 1.54   1 1.55
   3  0.986  0.031  0.032-  10 1.09  11 1.09   4 1.53   2 1.54   5 2.38
   4  0.966  0.998  0.011-  13 1.09  12 1.09   3 1.53   5 1.53
   5  0.985  0.964  0.030-  14 1.09  15 1.09   4 1.53   1 1.54   3 2.38
   6  0.043  0.963  0.008-   1 1.09
   7  0.041  0.962  0.058-   1 1.09
   8  0.043  0.029  0.007-   2 1.09
   9  0.043  0.030  0.057-   2 1.09
  10  0.982  0.059  0.018-   3 1.09
  11  0.975  0.034  0.061-   3 1.09
  12  0.973  0.999  0.981-   4 1.09
  13  0.935  0.999  0.014-   4 1.09
  14  0.980  0.937  0.014-   5 1.09
  15  0.973  0.960  0.058-   5 1.09
 
  LATTYP: Found a simple cubic cell.
 ALAT       =    35.0000000000
  
  Lattice vectors:
  
 A1 = (  35.0000000000,   0.0000000000,   0.0000000000)
 A2 = (   0.0000000000,  35.0000000000,   0.0000000000)
 A3 = (   0.0000000000,   0.0000000000,  35.0000000000)


Analysis of symmetry for initial positions (statically):
=====================================================================
 Subroutine PRICEL returns:
 Original cell was already a primitive cell.
 

 Routine SETGRP: Setting up the symmetry group for a 
 simple cubic supercell.


 Subroutine GETGRP returns: Found  1 space group operations
 (whereof  1 operations were pure point group operations)
 out of a pool of 48 trial point group operations.


The static configuration has the point symmetry C_1 .


Analysis of symmetry for dynamics (positions and initial velocities):
=====================================================================
 Subroutine PRICEL returns:
 Original cell was already a primitive cell.
 

 Routine SETGRP: Setting up the symmetry group for a 
 simple cubic supercell.


 Subroutine GETGRP returns: Found  1 space group operations
 (whereof  1 operations were pure point group operations)
 out of a pool of 48 trial point group operations.


The dynamic configuration has the point symmetry C_1 .
 
 
 KPOINTS: automatic mesh                          

Automatic generation of k-mesh.
Space group operators:
 irot       det(A)        alpha          n_x          n_y          n_z        tau_x        tau_y        tau_z
    1     1.000000     0.000000     1.000000     0.000000     0.000000     0.000000     0.000000     0.000000
 
 Subroutine IBZKPT returns following result:
 ===========================================
 
 Found      1 irreducible k-points:
 
 Following reciprocal coordinates:
            Coordinates               Weight
  0.000000  0.000000  0.000000      1.000000
 
 Following cartesian coordinates:
            Coordinates               Weight
  0.000000  0.000000  0.000000      1.000000
 
 
 Subroutine IBZKPT_HF returns following result:
 ==============================================
 
 Found      1 k-points in 1st BZ
 the following      1 k-points will be used (e.g. in the exchange kernel)
 Following reciprocal coordinates:   # in IRBZ
  0.000000  0.000000  0.000000    1.00000000   1 t-inv F


--------------------------------------------------------------------------------------------------------




 Dimension of arrays:
   k-points           NKPTS =      1   k-points in BZ     NKDIM =      1   number of bands    NBANDS=     24
   number of dos      NEDOS =    301   number of ions     NIONS =     15
   non local maximal  LDIM  =      4   non local SUM 2l+1 LMDIM =      8
   total plane-waves  NPLWV = ******
   max r-space proj   IRMAX =      1   max aug-charges    IRDMAX=  26641
   dimension x,y,z NGX =   378 NGY =  378 NGZ =  378
   dimension x,y,z NGXF=   756 NGYF=  756 NGZF=  756
   support grid    NGXF=   756 NGYF=  756 NGZF=  756
   ions per type =               5  10
 NGX,Y,Z   is equivalent  to a cutoff of  17.95, 17.95, 17.95 a.u.
 NGXF,Y,Z  is equivalent  to a cutoff of  35.91, 35.91, 35.91 a.u.


 I would recommend the setting:
   dimension x,y,z NGX =   361 NGY =  361 NGZ =  361
 SYSTEM =  C                                       
 POSCAR =  C H                                     

 Startparameter for this run:
   NWRITE =      2    write-flag & timer
   PREC   = accura    normal or accurate (medium, high low for compatibility)
   ISTART =      1    job   : 0-new  1-cont  2-samecut
   ICHARG =      0    charge: 1-file 2-atom 10-const
   ISPIN  =      1    spin polarized calculation?
   LNONCOLLINEAR =      F non collinear calculations
   LSORBIT =      F    spin-orbit coupling
   INIWAV =      1    electr: 0-lowe 1-rand  2-diag
   LASPH  =      T    aspherical Exc in radial PAW
   METAGGA=      F    non-selfconsistent MetaGGA calc.

 Electronic Relaxation 1
   ENCUT  = 1000.0 eV  73.50 Ry    8.57 a.u.  90.25 90.25 90.25*2*pi/ulx,y,z
   ENINI  = 1000.0     initial cutoff
   ENAUG  =  439.2 eV  augmentation charge cutoff
   NELM   =     60;   NELMIN=  2; NELMDL=  0     # of ELM steps 
   EDIFF  = 0.1E-06   stopping-criterion for ELM
   LREAL  =      F    real-space projection
   NLSPLINE    = F    spline interpolate recip. space projectors
   LCOMPAT=      F    compatible to vasp.4.4
   GGA_COMPAT  = T    GGA compatible to vasp.4.4-vasp.4.6
   LMAXPAW     = -100 max onsite density
   LMAXMIX     =    2 max onsite mixed and CHGCAR
   VOSKOWN=      0    Vosko Wilk Nusair interpolation
   ROPT   =    0.00000   0.00000
 Ionic relaxation
   EDIFFG = 0.1E-05   stopping-criterion for IOM
   NSW    =      0    number of steps for IOM
   NBLOCK =      1;   KBLOCK =      1    inner block; outer block 
   IBRION =     -1    ionic relax: 0-MD 1-quasi-New 2-CG
   NFREE  =      0    steps in history (QN), initial steepest desc. (CG)
   ISIF   =      0    stress and relaxation
   IWAVPR =     10    prediction:  0-non 1-charg 2-wave 3-comb
   ISYM   =      3    0-nonsym 1-usesym 2-fastsym
   LCORR  =      T    Harris-Foulkes like correction to forces

   POTIM  = 0.5000    time-step for ionic-motion
   TEIN   =    0.0    initial temperature
   TEBEG  =    0.0;   TEEND  =   0.0 temperature during run
   SMASS  =  -3.00    Nose mass-parameter (am)
   estimated Nose-frequenzy (Omega)   =  0.10E-29 period in steps =****** mass=  -0.280E-25a.u.
   SCALEE = 1.0000    scale energy and forces
   NPACO  =    256;   APACO  = 16.0  distance and # of slots for P.C.
   PSTRESS=    0.0 pullay stress

  Mass of Ions in am
   POMASS =  12.01  1.00
  Ionic Valenz
   ZVAL   =   4.00  1.00
  Atomic Wigner-Seitz radii
   RWIGS  =  -1.00 -1.00
  virtual crystal weights 
   VCA    =   1.00  1.00
   NELECT =      30.0000    total number of electrons
   NUPDOWN=      -1.0000    fix difference up-down

 DOS related values:
   EMIN   =  10.00;   EMAX   =-10.00  energy-range for DOS
   EFERMI =   0.00
   ISMEAR =     0;   SIGMA  =   0.01  broadening in eV -4-tet -1-fermi 0-gaus

 Electronic relaxation 2 (details)
   IALGO  =     58    algorithm
   LDIAG  =      T    sub-space diagonalisation (order eigenvalues)
   LSUBROT=      F    optimize rotation matrix (better conditioning)
   TURBO    =      0    0=normal 1=particle mesh
   IRESTART =      0    0=no restart 2=restart with 2 vectors
   NREBOOT  =      0    no. of reboots
   NMIN     =      0    reboot dimension
   EREF     =   0.00    reference energy to select bands
   IMIX   =      4    mixing-type and parameters
     AMIX     =   0.40;   BMIX     =  1.00
     AMIX_MAG =   1.60;   BMIX_MAG =  1.00
     AMIN     =   0.10
     WC   =   100.;   INIMIX=   1;  MIXPRE=   1;  MAXMIX= -45

 Intra band minimization:
   WEIMIN = 0.0000     energy-eigenvalue tresh-hold
   EBREAK =  0.10E-08  absolut break condition
   DEPER  =   0.30     relativ break condition  

   TIME   =   0.40     timestep for ELM

  volume/ion in A,a.u.               =    2858.33     19288.99
  Fermi-wavevector in a.u.,A,eV,Ry     =   0.145338  0.274650  0.287399  0.021123
  Thomas-Fermi vector in A             =   0.812913
 
 Write flags
   LWAVE  =      F    write WAVECAR
   LCHARG =      T    write CHGCAR
   LVTOT  =      F    write LOCPOT, total local potential
   LVHAR  =      F    write LOCPOT, Hartree potential only
   LELF   =      F    write electronic localiz. function (ELF)
   LORBIT =      0    0 simple, 1 ext, 2 COOP (PROOUT)


 Dipole corrections
   LMONO  =      F    monopole corrections only (constant potential shift)
   LDIPOL =      F    correct potential (dipole corrections)
   IDIPOL =      4    1-x, 2-y, 3-z, 4-all directions 
   EPSILON=  1.0000000 bulk dielectric constant

 Exchange correlation treatment:
   GGA     =    --    GGA type
   LEXCH   =     8    internal setting for exchange type
   VOSKOWN=      0    Vosko Wilk Nusair interpolation
   EXXOEP  =     0    0=HF, 1=EXX-LHF (local Hartree Fock) 2=EXX OEP
   LHFCALC =     T    Hartree Fock is set to
   LSYMGRAD=     F    symmetrize gradient (conserves proper symmetry)
   PRECFOCK=normal    Normal, Fast or Accurate (Low or Medium for compatibility)
   LRHFCALC=     F    long range Hartree Fock
   LRSCOR  =     F    long range correlation only (use DFT for short range part)
   LTHOMAS =     F    Thomas Fermi screening in HF
   LMODELHF=     F    short range full HF, long range fraction AEXX
   ENCUT4O =  -1.0   cutoff for four orbital integrals eV
   LMAXFOCK=     4    L truncation for augmentation on plane wave grid
   LMAXFOCKAE=  -1    L truncation for all-electron charge restoration on plane wave grid
   NMAXFOCKAE=   1    number of basis functions for all-electron charge restoration
   LFOCKAEDFT=     F  apply the AE augmentation even for DFT
   NKREDX  =     1    reduce k-point grid by
   NKREDY  =     1    reduce k-point grid by
   NKREDZ  =     1    reduce k-point grid by
   SHIFTRED=     F    shift reduced grid of Gamma
   HFKIDENT=     F    idential grid for each k-point
   ODDONLY =     F    use only odd q-grid points
   EVENONLY=     F    use only even q-grid points
   HFALPHA =   -1.0000 decay constant for conv. correction
   MCALPHA =    0.0000 extent of test-charge in conv. correction in multipole expansion
   AEXX    =    1.0000 exact exchange contribution
   HFSCREEN=    0.0000 screening length (either q_TF or 0.3 A-1)
   HFSCREENC=   0.0000 screening length for correlation (either q_TF or 0.3 A-1)
   HFRCUT  =    0.0000 spherical cutoff for potential kernel
   ALDAX   =    0.0000 LDA exchange part
   AGGAX   =    0.0000 GGA exchange part
   ALDAC   =    0.0000 LDA correlation
   AGGAC   =    0.0000 GGA correlation
   NBANDSGWLOW=     1    first orbital included in HF term
   ENCUTFOCK=  -1.0 apply spherical cutoff to Coloumb kernel
 Linear response parameters
   LEPSILON=     F    determine dielectric tensor
   LRPA    =     F    only Hartree local field effects (RPA)
   LNABLA  =     F    use nabla operator in PAW spheres
   LVEL    =     F    velocity operator in full k-point grid
   LINTERFAST=   F  fast interpolation
   KINTER  =     0    interpolate to denser k-point grid
   CSHIFT  =0.1000    complex shift for real part using Kramers Kronig
   OMEGAMAX=  -1.0    maximum frequency
   DEG_THRESHOLD= 0.2000000E-02 threshold for treating states as degnerate
   RTIME   =    0.100 relaxation time in fs

 Orbital magnetization related:
   ORBITALMAG=     F  switch on orbital magnetization
   LCHIMAG   =     F  perturbation theory with respect to B field
   DQ        =  0.001000  dq finite difference perturbation B field



--------------------------------------------------------------------------------------------------------


 Static calculation
 charge density and potential will be updated during run
 non-spin polarized calculation
 Conjugate gradient for all bands (Freysoldt, et al. PRB 79, 241103 (2009))
 preconditioned conjugated gradient                                        
 perform sub-space diagonalisation
    before iterative eigenvector-optimisation
 modified Broyden-mixing scheme, WC =      100.0
 initial mixing is a Kerker type mixing with AMIX =  0.4000 and BMIX =      1.0000
 Hartree-type preconditioning will be used
 using additional bands            9
 reciprocal scheme for non local part
 no Harris-corrections to forces 
 use gradient corrections 
 use of overlap-Matrix (Vanderbilt PP)
 Gauss-broadening in eV      SIGMA  =   0.01


--------------------------------------------------------------------------------------------------------


  energy-cutoff  :     1000.00
  volume of cell :    42875.00
      direct lattice vectors                 reciprocal lattice vectors
    35.000000000  0.000000000  0.000000000     0.028571429  0.000000000  0.000000000
     0.000000000 35.000000000  0.000000000     0.000000000  0.028571429  0.000000000
     0.000000000  0.000000000 35.000000000     0.000000000  0.000000000  0.028571429

  length of vectors
    35.000000000 35.000000000 35.000000000     0.028571429  0.028571429  0.028571429


 
 old parameters found on file WAVECAR:
  energy-cutoff  :     1000.00
  volume of cell :    42875.00
      direct lattice vectors                 reciprocal lattice vectors
    35.000000000  0.000000000  0.000000000     0.028571429  0.000000000  0.000000000
     0.000000000 35.000000000  0.000000000     0.000000000  0.028571429  0.000000000
     0.000000000  0.000000000 35.000000000     0.000000000  0.000000000  0.028571429

  length of vectors

 
 k-points in units of 2pi/SCALE and weight: automatic mesh                          
   0.00000000  0.00000000  0.00000000       1.000
 
 k-points in reciprocal lattice and weights: automatic mesh                          
   0.00000000  0.00000000  0.00000000       1.000
 
 position of ions in fractional coordinates (direct lattice) 
   0.02733943  0.97451870  0.03262714
   0.02831284  0.01881452  0.03272868
   0.98630137  0.03149482  0.03153940
   0.96622553  0.99849153  0.01123845
   0.98483830  0.96357458  0.02969456
   0.04298760  0.96347550  0.00809772
   0.04061098  0.96243492  0.05802930
   0.04315984  0.02923133  0.00742708
   0.04332166  0.03028052  0.05744392
   0.98239233  0.05899649  0.01753050
   0.97500736  0.03397347  0.06051627
   0.97288908  0.99923342  0.98074844
   0.93526673  0.99904101  0.01432212
   0.98027455  0.93722797  0.01379978
   0.97283287  0.95955966  0.05819279
 
 position of ions in cartesian coordinates  (Angst):
   0.95688019 34.10815437  1.14195000
   0.99094943  0.65850830  1.14550384
  34.52054806  1.10231879  1.10387910
  33.81789350 34.94720344  0.39334575
  34.46934042 33.72511046  1.03930959
   1.50456597 33.72164238  0.28342019
   1.42138447 33.68522207  2.03102546
   1.51059446  1.02309646  0.25994788
   1.51625823  1.05981813  2.01053703
  34.38373139  2.06487722  0.61356737
  34.12525777  1.18907144  2.11806959
  34.05111784 34.97316970 34.32619541
  32.73433548 34.96643526  0.50127403
  34.30960939 32.80297907  0.48299221
  34.04915061 33.58458803  2.03674782
 


--------------------------------------------------------------------------------------------------------


 use parallel FFT for wavefunctions z direction half grid
 k-point  1 :   0.0000 0.0000 0.0000  plane waves: 1539209

 maximum and minimum number of plane-waves per node :    192406   192397

 maximum number of plane-waves:   1539209
 maximum index in each direction: 
   IXMAX=   90   IYMAX=   90   IZMAX=   90
   IXMIN=  -90   IYMIN=  -90   IZMIN=    0

 NGX is ok and might be reduce to 362
 NGY is ok and might be reduce to 362
 NGZ is ok and might be reduce to 362

 parallel 3D FFT for wavefunctions:
    minimum data exchange during FFTs selected (reduces bandwidth)
 parallel 3D FFT for charge:
    minimum data exchange during FFTs selected (reduces bandwidth)


 FFT grid for exact exchange (Hartree Fock) 
  NGX =280; NGY =280; NGZ =280

 use parallel FFT for wavefunctions z direction half grid
 
 Radii for the augmentation spheres in the non-local exchange
 for species   1 augmentation radius   1.059 (default was   0.847)
       energy cutoff for augmentation   4000.0
 for species   2 augmentation radius   0.782 (default was   0.626)
       energy cutoff for augmentation   4000.0

 real space projection operators:
  total allocation   :       1617.33 KBytes
  max/ min on nodes  :        205.45        200.25

 Maximum index for augmentation-charges in exchange          352
  SETUP_FOCK is finished

 total amount of memory used by VASP on root node  1894001. kBytes
========================================================================

   base      :      30000. kBytes
   nonl-proj :      70806. kBytes
   fftplans  :     693297. kBytes
   grid      :    1044223. kBytes
   one-center:          3. kBytes
   HF        :          9. kBytes
   nonlr-proj:        250. kBytes
   wavefun   :      55413. kBytes
 
     INWAV:  cpu time    1.8187: real time    1.8611
 Broyden mixing: mesh for mixing (old mesh)
   NGX =181   NGY =181   NGZ =181
  (NGX  =756   NGY  =756   NGZ  =756)
  gives a total of ****** points

 charge density for first step will be calculated from the start-wavefunctions


--------------------------------------------------------------------------------------------------------


 Maximum index for augmentation-charges         1474 (set IRDMAX)


--------------------------------------------------------------------------------------------------------


 initial charge from wavefunction
 FEWALD executed in parallel
    FEWALD:  cpu time    0.0052: real time    0.0053


----------------------------------------- Iteration    1(   1)  ---------------------------------------


    POTLOK:  cpu time    8.3067: real time    8.3295
    SETDIJ:  cpu time    0.1160: real time    0.1163
    TRIAL :  cpu time   20.5245: real time   20.6126
    CORREC:  cpu time   28.2488: real time   28.3575
    CHARGE:  cpu time    1.1906: real time    1.1951
    --------------------------------------------
      LOOP:  cpu time   58.4339: real time   58.6596

 eigenvalue-minimisations  :     0
 total energy-change (2. order) :-0.1392060E+03  (-0.6668632E+00)
 number of electron      30.0000000 magnetization 
 augmentation part        1.0969297 magnetization 

 Free energy of the ion-electron system (eV)
  ---------------------------------------------------
  alpha Z        PSCENC =         0.05918301
  Ewald energy   TEWEN  =      2357.65813125
  -Hartree energ DENC   =     -3050.13720478
  -exchange      EXHF   =       307.14680935
  -V(xc)+E(xc)   XCENC  =         0.00000000
  PAW double counting   =      8092.18337269    -8091.67574425
  entropy T*S    EENTRO =        -0.00000000
  eigenvalues    EBANDS =      -524.56528235
  atomic energy  EATOM  =       770.12476239
  ---------------------------------------------------
  free energy    TOTEN  =      -139.20597268 eV

  energy without entropy =     -139.20597268  energy(sigma->0) =     -139.20597268
  exchange ACFDT corr.  =         0.00000000  see jH, gK, PRB 81, 115126


--------------------------------------------------------------------------------------------------------




----------------------------------------- Iteration    1(   2)  ---------------------------------------


    POTLOK:  cpu time    8.6235: real time    8.6445
    SETDIJ:  cpu time    0.1115: real time    0.1118
    TRIAL :  cpu time   20.4692: real time   20.5576
    CORREC:  cpu time   28.1132: real time   28.2211
    CHARGE:  cpu time    1.1873: real time    1.1919
    --------------------------------------------
      LOOP:  cpu time   58.5211: real time   58.7459

 eigenvalue-minimisations  :     0
 total energy-change (2. order) :-0.6656791E+00  (-0.2883678E+00)
 number of electron      30.0000000 magnetization 
 augmentation part        1.1409053 magnetization 

 Free energy of the ion-electron system (eV)
  ---------------------------------------------------
  alpha Z        PSCENC =         0.05918301
  Ewald energy   TEWEN  =      2357.65813125
  -Hartree energ DENC   =     -3038.52663930
  -exchange      EXHF   =       307.30858572
  -V(xc)+E(xc)   XCENC  =         0.00000000
  PAW double counting   =     12204.51658270   -12204.18829968
  entropy T*S    EENTRO =        -0.00000000
  eigenvalues    EBANDS =      -536.82395788
  atomic energy  EATOM  =       770.12476239
  ---------------------------------------------------
  free energy    TOTEN  =      -139.87165180 eV

  energy without entropy =     -139.87165180  energy(sigma->0) =     -139.87165180
  exchange ACFDT corr.  =         0.00000000  see jH, gK, PRB 81, 115126


--------------------------------------------------------------------------------------------------------




----------------------------------------- Iteration    1(   3)  ---------------------------------------


    POTLOK:  cpu time    8.6267: real time    8.6476
    SETDIJ:  cpu time    0.1118: real time    0.1121
    TRIAL :  cpu time   20.5020: real time   20.5913
    CORREC:  cpu time   28.1322: real time   28.2397
    CHARGE:  cpu time    1.1897: real time    1.1944
    --------------------------------------------
      LOOP:  cpu time   58.5800: real time   58.8054

 eigenvalue-minimisations  :     0
 total energy-change (2. order) :-0.2903188E+00  (-0.6451097E-01)
 number of electron      30.0000000 magnetization 
 augmentation part        1.1580854 magnetization 

 Free energy of the ion-electron system (eV)
  ---------------------------------------------------
  alpha Z        PSCENC =         0.05918301
  Ewald energy   TEWEN  =      2357.65813125
  -Hartree energ DENC   =     -3051.65230518
  -exchange      EXHF   =       309.70136602
  -V(xc)+E(xc)   XCENC  =         0.00000000
  PAW double counting   =     11954.55268997   -11954.22692787
  entropy T*S    EENTRO =        -0.00000000
  eigenvalues    EBANDS =      -526.37887020
  atomic energy  EATOM  =       770.12476239
  ---------------------------------------------------
  free energy    TOTEN  =      -140.16197060 eV

  energy without entropy =     -140.16197060  energy(sigma->0) =     -140.16197060
  exchange ACFDT corr.  =         0.00000000  see jH, gK, PRB 81, 115126


--------------------------------------------------------------------------------------------------------




----------------------------------------- Iteration    1(   4)  ---------------------------------------


    POTLOK:  cpu time    8.6130: real time    8.6367
    SETDIJ:  cpu time    0.1145: real time    0.1148
    TRIAL :  cpu time   20.6346: real time   20.7245
    CORREC:  cpu time   28.0925: real time   28.2000
    CHARGE:  cpu time    1.1939: real time    1.1984
    --------------------------------------------
      LOOP:  cpu time   58.6634: real time   58.8920

 eigenvalue-minimisations  :     0
 total energy-change (2. order) :-0.6452689E-01  (-0.1378746E-01)
 number of electron      30.0000000 magnetization 
 augmentation part        1.1526749 magnetization 

 Free energy of the ion-electron system (eV)
  ---------------------------------------------------
  alpha Z        PSCENC =         0.05918301
  Ewald energy   TEWEN  =      2357.65813125
  -Hartree energ DENC   =     -3045.06119376
  -exchange      EXHF   =       309.14854591
  -V(xc)+E(xc)   XCENC  =         0.00000000
  PAW double counting   =     11690.62779413   -11690.31060089
  entropy T*S    EENTRO =        -0.00000000
  eigenvalues    EBANDS =      -532.47311953
  atomic energy  EATOM  =       770.12476239
  ---------------------------------------------------
  free energy    TOTEN  =      -140.22649749 eV

  energy without entropy =     -140.22649749  energy(sigma->0) =     -140.22649749
  exchange ACFDT corr.  =        -0.00000000  see jH, gK, PRB 81, 115126


--------------------------------------------------------------------------------------------------------




----------------------------------------- Iteration    1(   5)  ---------------------------------------


    POTLOK:  cpu time    8.6146: real time    8.6383
    SETDIJ:  cpu time    0.1143: real time    0.1145
    TRIAL :  cpu time   20.6148: real time   20.7036
    CORREC:  cpu time   28.1474: real time   28.2559
    CHARGE:  cpu time    1.1905: real time    1.1951
    --------------------------------------------
      LOOP:  cpu time   58.6966: real time   58.9249

 eigenvalue-minimisations  :     0
 total energy-change (2. order) :-0.1379993E-01  (-0.4364086E-02)
 number of electron      30.0000000 magnetization 
 augmentation part        1.1545804 magnetization 

 Free energy of the ion-electron system (eV)
  ---------------------------------------------------
  alpha Z        PSCENC =         0.05918301
  Ewald energy   TEWEN  =      2357.65813125
  -Hartree energ DENC   =     -3044.38443597
  -exchange      EXHF   =       309.13663226
  -V(xc)+E(xc)   XCENC  =         0.00000000
  PAW double counting   =     11810.73306371   -11810.42297786
  entropy T*S    EENTRO =        -0.00000000
  eigenvalues    EBANDS =      -533.14465622
  atomic energy  EATOM  =       770.12476239
  ---------------------------------------------------
  free energy    TOTEN  =      -140.24029742 eV

  energy without entropy =     -140.24029742  energy(sigma->0) =     -140.24029742
  exchange ACFDT corr.  =         0.00000000  see jH, gK, PRB 81, 115126


--------------------------------------------------------------------------------------------------------




----------------------------------------- Iteration    1(   6)  ---------------------------------------


    POTLOK:  cpu time    8.6580: real time    8.6815
    SETDIJ:  cpu time    0.1131: real time    0.1134
    TRIAL :  cpu time   20.9000: real time   20.9906
    CORREC:  cpu time   28.1998: real time   28.3085
    CHARGE:  cpu time    1.1935: real time    1.1981
    --------------------------------------------
      LOOP:  cpu time   59.0868: real time   59.3170

 eigenvalue-minimisations  :     0
 total energy-change (2. order) :-0.4368114E-02  (-0.1255595E-02)
 number of electron      30.0000000 magnetization 
 augmentation part        1.1541033 magnetization 

 Free energy of the ion-electron system (eV)
  ---------------------------------------------------
  alpha Z        PSCENC =         0.05918301
  Ewald energy   TEWEN  =      2357.65813125
  -Hartree energ DENC   =     -3046.06015580
  -exchange      EXHF   =       309.37699841
  -V(xc)+E(xc)   XCENC  =         0.00000000
  PAW double counting   =     11834.37423190   -11834.06515053
  entropy T*S    EENTRO =        -0.00000000
  eigenvalues    EBANDS =      -531.71266616
  atomic energy  EATOM  =       770.12476239
  ---------------------------------------------------
  free energy    TOTEN  =      -140.24466554 eV

  energy without entropy =     -140.24466554  energy(sigma->0) =     -140.24466554
  exchange ACFDT corr.  =         0.00000000  see jH, gK, PRB 81, 115126


--------------------------------------------------------------------------------------------------------




----------------------------------------- Iteration    1(   7)  ---------------------------------------


    POTLOK:  cpu time    8.6734: real time    8.6945
    SETDIJ:  cpu time    0.1111: real time    0.1114
    TRIAL :  cpu time   20.8924: real time   20.9829
    CORREC:  cpu time   28.2300: real time   28.3382
    CHARGE:  cpu time    1.1870: real time    1.1916
    --------------------------------------------
      LOOP:  cpu time   59.1160: real time   59.3428

 eigenvalue-minimisations  :     0
 total energy-change (2. order) :-0.1256671E-02  (-0.4936533E-03)
 number of electron      30.0000000 magnetization 
 augmentation part        1.1552483 magnetization 

 Free energy of the ion-electron system (eV)
  ---------------------------------------------------
  alpha Z        PSCENC =         0.05918301
  Ewald energy   TEWEN  =      2357.65813125
  -Hartree energ DENC   =     -3045.87286276
  -exchange      EXHF   =       309.39730656
  -V(xc)+E(xc)   XCENC  =         0.00000000
  PAW double counting   =     11860.34933407   -11860.04209750
  entropy T*S    EENTRO =        -0.00000000
  eigenvalues    EBANDS =      -531.91967923
  atomic energy  EATOM  =       770.12476239
  ---------------------------------------------------
  free energy    TOTEN  =      -140.24592221 eV

  energy without entropy =     -140.24592221  energy(sigma->0) =     -140.24592221
  exchange ACFDT corr.  =         0.00000000  see jH, gK, PRB 81, 115126


--------------------------------------------------------------------------------------------------------




----------------------------------------- Iteration    1(   8)  ---------------------------------------


    POTLOK:  cpu time    8.6646: real time    8.6857
    SETDIJ:  cpu time    0.1107: real time    0.1110
    TRIAL :  cpu time   20.7689: real time   20.8598
    CORREC:  cpu time   28.2723: real time   28.3808
    CHARGE:  cpu time    1.1931: real time    1.1978
    --------------------------------------------
      LOOP:  cpu time   59.0355: real time   59.2636

 eigenvalue-minimisations  :     0
 total energy-change (2. order) :-0.4947795E-03  (-0.2004044E-03)
 number of electron      30.0000000 magnetization 
 augmentation part        1.1550955 magnetization 

 Free energy of the ion-electron system (eV)
  ---------------------------------------------------
  alpha Z        PSCENC =         0.05918301
  Ewald energy   TEWEN  =      2357.65813125
  -Hartree energ DENC   =     -3045.64934935
  -exchange      EXHF   =       309.37981631
  -V(xc)+E(xc)   XCENC  =         0.00000000
  PAW double counting   =     11826.63255159   -11826.32457427
  entropy T*S    EENTRO =        -0.00000000
  eigenvalues    EBANDS =      -532.12693792
  atomic energy  EATOM  =       770.12476239
  ---------------------------------------------------
  free energy    TOTEN  =      -140.24641699 eV

  energy without entropy =     -140.24641699  energy(sigma->0) =     -140.24641699
  exchange ACFDT corr.  =         0.00000000  see jH, gK, PRB 81, 115126


--------------------------------------------------------------------------------------------------------




----------------------------------------- Iteration    1(   9)  ---------------------------------------


    POTLOK:  cpu time    8.6501: real time    8.6737
    SETDIJ:  cpu time    0.1143: real time    0.1146
    TRIAL :  cpu time   20.8960: real time   20.9878
    CORREC:  cpu time   28.2850: real time   28.3933
    CHARGE:  cpu time    1.1918: real time    1.1964
    --------------------------------------------
      LOOP:  cpu time   59.1599: real time   59.3910

 eigenvalue-minimisations  :     0
 total energy-change (2. order) :-0.2013438E-03  (-0.8436798E-04)
 number of electron      30.0000000 magnetization 
 augmentation part        1.1545971 magnetization 

 Free energy of the ion-electron system (eV)
  ---------------------------------------------------
  alpha Z        PSCENC =         0.05918301
  Ewald energy   TEWEN  =      2357.65813125
  -Hartree energ DENC   =     -3045.69747904
  -exchange      EXHF   =       309.38154275
  -V(xc)+E(xc)   XCENC  =         0.00000000
  PAW double counting   =     11826.92340475   -11826.61529858
  entropy T*S    EENTRO =        -0.00000000
  eigenvalues    EBANDS =      -532.08086487
  atomic energy  EATOM  =       770.12476239
  ---------------------------------------------------
  free energy    TOTEN  =      -140.24661833 eV

  energy without entropy =     -140.24661833  energy(sigma->0) =     -140.24661833
  exchange ACFDT corr.  =         0.00000000  see jH, gK, PRB 81, 115126


--------------------------------------------------------------------------------------------------------




----------------------------------------- Iteration    1(  10)  ---------------------------------------


    POTLOK:  cpu time    8.6596: real time    8.6835
    SETDIJ:  cpu time    0.1142: real time    0.1145
    TRIAL :  cpu time   20.6692: real time   20.7584
    CORREC:  cpu time   28.2072: real time   28.3152
    CHARGE:  cpu time    1.1935: real time    1.1983
    --------------------------------------------
      LOOP:  cpu time   58.8650: real time   59.0935

 eigenvalue-minimisations  :     0
 total energy-change (2. order) :-0.8462817E-04  (-0.2971816E-04)
 number of electron      30.0000000 magnetization 
 augmentation part        1.1548663 magnetization 

 Free energy of the ion-electron system (eV)
  ---------------------------------------------------
  alpha Z        PSCENC =         0.05918301
  Ewald energy   TEWEN  =      2357.65813125
  -Hartree energ DENC   =     -3045.72761359
  -exchange      EXHF   =       309.38179003
  -V(xc)+E(xc)   XCENC  =         0.00000000
  PAW double counting   =     11834.94630605   -11834.63829727
  entropy T*S    EENTRO =        -0.00000000
  eigenvalues    EBANDS =      -532.05096483
  atomic energy  EATOM  =       770.12476239
  ---------------------------------------------------
  free energy    TOTEN  =      -140.24670296 eV

  energy without entropy =     -140.24670296  energy(sigma->0) =     -140.24670296
  exchange ACFDT corr.  =         0.00000000  see jH, gK, PRB 81, 115126


--------------------------------------------------------------------------------------------------------




----------------------------------------- Iteration    1(  11)  ---------------------------------------


    POTLOK:  cpu time    8.6621: real time    8.6832
    SETDIJ:  cpu time    0.1112: real time    0.1115
    TRIAL :  cpu time   20.6351: real time   20.7246
    CORREC:  cpu time   28.2322: real time   28.3410
    CHARGE:  cpu time    1.1863: real time    1.1910
    --------------------------------------------
      LOOP:  cpu time   58.8501: real time   59.0767

 eigenvalue-minimisations  :     0
 total energy-change (2. order) :-0.2973024E-04  (-0.1138884E-04)
 number of electron      30.0000000 magnetization 
 augmentation part        1.1547929 magnetization 

 Free energy of the ion-electron system (eV)
  ---------------------------------------------------
  alpha Z        PSCENC =         0.05918301
  Ewald energy   TEWEN  =      2357.65813125
  -Hartree energ DENC   =     -3045.73588816
  -exchange      EXHF   =       309.37929413
  -V(xc)+E(xc)   XCENC  =         0.00000000
  PAW double counting   =     11827.39820025   -11827.08985268
  entropy T*S    EENTRO =        -0.00000000
  eigenvalues    EBANDS =      -532.04056288
  atomic energy  EATOM  =       770.12476239
  ---------------------------------------------------
  free energy    TOTEN  =      -140.24673269 eV

  energy without entropy =     -140.24673269  energy(sigma->0) =     -140.24673269
  exchange ACFDT corr.  =         0.00000000  see jH, gK, PRB 81, 115126


--------------------------------------------------------------------------------------------------------




----------------------------------------- Iteration    1(  12)  ---------------------------------------


    POTLOK:  cpu time    8.6653: real time    8.6864
    SETDIJ:  cpu time    0.1120: real time    0.1122
    TRIAL :  cpu time   20.7245: real time   20.8143
    CORREC:  cpu time   28.1010: real time   28.2085
    CHARGE:  cpu time    1.1899: real time    1.1946
    --------------------------------------------
      LOOP:  cpu time   58.8176: real time   59.0434

 eigenvalue-minimisations  :     0
 total energy-change (2. order) :-0.1139021E-04  (-0.3974230E-05)
 number of electron      30.0000000 magnetization 
 augmentation part        1.1547766 magnetization 

 Free energy of the ion-electron system (eV)
  ---------------------------------------------------
  alpha Z        PSCENC =         0.05918301
  Ewald energy   TEWEN  =      2357.65813125
  -Hartree energ DENC   =     -3045.72832803
  -exchange      EXHF   =       309.37790131
  -V(xc)+E(xc)   XCENC  =         0.00000000
  PAW double counting   =     11828.74841372   -11828.44007567
  entropy T*S    EENTRO =        -0.00000000
  eigenvalues    EBANDS =      -532.04673205
  atomic energy  EATOM  =       770.12476239
  ---------------------------------------------------
  free energy    TOTEN  =      -140.24674408 eV

  energy without entropy =     -140.24674408  energy(sigma->0) =     -140.24674408
  exchange ACFDT corr.  =         0.00000000  see jH, gK, PRB 81, 115126


--------------------------------------------------------------------------------------------------------




----------------------------------------- Iteration    1(  13)  ---------------------------------------


    POTLOK:  cpu time    8.6530: real time    8.6740
    SETDIJ:  cpu time    0.1131: real time    0.1134
    TRIAL :  cpu time   20.8370: real time   20.9273
    CORREC:  cpu time   28.1140: real time   28.2223
    CHARGE:  cpu time    1.1932: real time    1.1977
    --------------------------------------------
      LOOP:  cpu time   58.9343: real time   59.1613

 eigenvalue-minimisations  :     0
 total energy-change (2. order) :-0.3975774E-05  (-0.1339248E-05)
 number of electron      30.0000000 magnetization 
 augmentation part        1.1547818 magnetization 

 Free energy of the ion-electron system (eV)
  ---------------------------------------------------
  alpha Z        PSCENC =         0.05918301
  Ewald energy   TEWEN  =      2357.65813125
  -Hartree energ DENC   =     -3045.74348701
  -exchange      EXHF   =       309.37968703
  -V(xc)+E(xc)   XCENC  =         0.00000000
  PAW double counting   =     11829.62066237   -11829.31233441
  entropy T*S    EENTRO =        -0.00000000
  eigenvalues    EBANDS =      -532.03335268
  atomic energy  EATOM  =       770.12476239
  ---------------------------------------------------
  free energy    TOTEN  =      -140.24674805 eV

  energy without entropy =     -140.24674805  energy(sigma->0) =     -140.24674805
  exchange ACFDT corr.  =         0.00000000  see jH, gK, PRB 81, 115126


--------------------------------------------------------------------------------------------------------




----------------------------------------- Iteration    1(  14)  ---------------------------------------


    POTLOK:  cpu time    8.6716: real time    8.6927
    SETDIJ:  cpu time    0.1124: real time    0.1127
    TRIAL :  cpu time   20.7210: real time   20.8109
    CORREC:  cpu time   28.2433: real time   28.3514
    CHARGE:  cpu time    1.1890: real time    1.1934
    --------------------------------------------
      LOOP:  cpu time   58.9613: real time   59.1878

 eigenvalue-minimisations  :     0
 total energy-change (2. order) :-0.1338897E-05  (-0.4930128E-06)
 number of electron      30.0000000 magnetization 
 augmentation part        1.1547897 magnetization 

 Free energy of the ion-electron system (eV)
  ---------------------------------------------------
  alpha Z        PSCENC =         0.05918301
  Ewald energy   TEWEN  =      2357.65813125
  -Hartree energ DENC   =     -3045.74388403
  -exchange      EXHF   =       309.37993183
  -V(xc)+E(xc)   XCENC  =         0.00000000
  PAW double counting   =     11829.67027031   -11829.36195566
  entropy T*S    EENTRO =        -0.00000000
  eigenvalues    EBANDS =      -532.03318848
  atomic energy  EATOM  =       770.12476239
  ---------------------------------------------------
  free energy    TOTEN  =      -140.24674939 eV

  energy without entropy =     -140.24674939  energy(sigma->0) =     -140.24674939
  exchange ACFDT corr.  =         0.00000000  see jH, gK, PRB 81, 115126


--------------------------------------------------------------------------------------------------------




----------------------------------------- Iteration    1(  15)  ---------------------------------------


    POTLOK:  cpu time    8.6581: real time    8.6792
    SETDIJ:  cpu time    0.1122: real time    0.1125
    TRIAL :  cpu time   20.6366: real time   20.7266
    CORREC:  cpu time   28.2329: real time   28.3411
    CHARGE:  cpu time    1.1922: real time    1.1968
    --------------------------------------------
      LOOP:  cpu time   58.8569: real time   59.0835

 eigenvalue-minimisations  :     0
 total energy-change (2. order) :-0.4926757E-06  (-0.1718552E-06)
 number of electron      30.0000000 magnetization 
 augmentation part        1.1547973 magnetization 

 Free energy of the ion-electron system (eV)
  ---------------------------------------------------
  alpha Z        PSCENC =         0.05918301
  Ewald energy   TEWEN  =      2357.65813125
  -Hartree energ DENC   =     -3045.74092379
  -exchange      EXHF   =       309.37967881
  -V(xc)+E(xc)   XCENC  =         0.00000000
  PAW double counting   =     11829.57469930   -11829.26639368
  entropy T*S    EENTRO =        -0.00000000
  eigenvalues    EBANDS =      -532.03588718
  atomic energy  EATOM  =       770.12476239
  ---------------------------------------------------
  free energy    TOTEN  =      -140.24674989 eV

  energy without entropy =     -140.24674989  energy(sigma->0) =     -140.24674989
  exchange ACFDT corr.  =        -0.00000000  see jH, gK, PRB 81, 115126


--------------------------------------------------------------------------------------------------------




----------------------------------------- Iteration    1(  16)  ---------------------------------------


    POTLOK:  cpu time    8.6673: real time    8.6885
    SETDIJ:  cpu time    0.1117: real time    0.1120
    TRIAL :  cpu time   20.6430: real time   20.7325
    CORREC:  cpu time   28.2348: real time   28.3431
    CHARGE:  cpu time    1.1944: real time    1.1989
    --------------------------------------------
      LOOP:  cpu time   58.8743: real time   59.1003

 eigenvalue-minimisations  :     0
 total energy-change (2. order) :-0.1714888E-06  (-0.5312825E-07)
 number of electron      30.0000000 magnetization 
 augmentation part        1.1547915 magnetization 

 Free energy of the ion-electron system (eV)
  ---------------------------------------------------
  alpha Z        PSCENC =         0.05918301
  Ewald energy   TEWEN  =      2357.65813125
  -Hartree energ DENC   =     -3045.74206651
  -exchange      EXHF   =       309.37984573
  -V(xc)+E(xc)   XCENC  =         0.00000000
  PAW double counting   =     11829.50758149   -11829.19927713
  entropy T*S    EENTRO =        -0.00000000
  eigenvalues    EBANDS =      -532.03491029
  atomic energy  EATOM  =       770.12476239
  ---------------------------------------------------
  free energy    TOTEN  =      -140.24675006 eV

  energy without entropy =     -140.24675006  energy(sigma->0) =     -140.24675006
  exchange ACFDT corr.  =         0.00000000  see jH, gK, PRB 81, 115126


--------------------------------------------------------------------------------------------------------




----------------------------------------- Iteration    1(  17)  ---------------------------------------


    POTLOK:  cpu time    8.6629: real time    8.6840
    SETDIJ:  cpu time    0.1128: real time    0.1131
    TRIAL :  cpu time   20.6546: real time   20.7450
    CORREC:  cpu time   28.2559: real time   28.3648
    CHARGE:  cpu time    1.1941: real time    1.1988
    --------------------------------------------
      LOOP:  cpu time   58.9058: real time   59.1335

 eigenvalue-minimisations  :     0
 total energy-change (2. order) :-0.5282573E-07  (-0.1804945E-07)
 number of electron      30.0000000 magnetization 
 augmentation part        1.1547934 magnetization 

 Free energy of the ion-electron system (eV)
  ---------------------------------------------------
  alpha Z        PSCENC =         0.05918301
  Ewald energy   TEWEN  =      2357.65813125
  -Hartree energ DENC   =     -3045.74215574
  -exchange      EXHF   =       309.37993972
  -V(xc)+E(xc)   XCENC  =         0.00000000
  PAW double counting   =     11829.66498010   -11829.35668291
  entropy T*S    EENTRO =        -0.00000000
  eigenvalues    EBANDS =      -532.03490794
  atomic energy  EATOM  =       770.12476239
  ---------------------------------------------------
  free energy    TOTEN  =      -140.24675011 eV

  energy without entropy =     -140.24675011  energy(sigma->0) =     -140.24675011
  exchange ACFDT corr.  =         0.00000000  see jH, gK, PRB 81, 115126


--------------------------------------------------------------------------------------------------------


  average scaling for gradient   1.1352


 average (electrostatic) potential at core
  the test charge radii are     0.8471  0.6256
  (the norm of the test charge is              1.0000)
       1 -65.0923       2 -65.0943       3 -65.1062       4 -65.1132       5 -65.1045
       6 -19.9936       7 -20.0186       8 -19.9930       9 -20.0271      10 -20.0689
      11 -20.0247      12 -20.0609      13 -20.0846      14 -20.0637      15 -20.0185
 
 
 
 E-fermi : -12.0667     XC(G=0):   0.0000     alpha+bet : -0.0192


 k-point     1 :       0.0000    0.0000    0.0000
  band No.  band energies     occupation 
      1     -30.3873      2.00000
      2     -26.0417      2.00000
      3     -26.0185      2.00000
      4     -21.1396      2.00000
      5     -20.8762      2.00000
      6     -17.6586      2.00000
      7     -17.5151      2.00000
      8     -15.4798      2.00000
      9     -15.4294      2.00000
     10     -12.8971      2.00000
     11     -12.8720      2.00000
     12     -12.5778      2.00000
     13     -12.4897      2.00000
     14     -12.4596      2.00000
     15     -12.1750      2.00000
     16       0.0153      0.00000
     17       0.1353      0.00000
     18       0.1355      0.00000
     19       0.1357      0.00000
     20       0.1376      0.00000
     21       0.1906      0.00000
     22       0.2288      0.00000
     23       0.3018      0.00000
     24       0.3151      0.00000


--------------------------------------------------------------------------------------------------------


 soft charge-density along one line, spin component           1
         0         1         2         3         4         5         6         7         8         9
 total charge-density along one line
 
 pseudopotential strength for first ion, spin component:           1
 17.220  20.267   0.000   0.000  -0.000   0.000   0.000  -0.000
 20.267  23.856   0.000   0.000  -0.000   0.000   0.000  -0.000
  0.000   0.000  -0.817   0.001   0.003  -0.716   0.001   0.004
  0.000   0.000   0.001  -0.821  -0.000   0.001  -0.720  -0.000
 -0.000  -0.000   0.003  -0.000  -0.818   0.004  -0.000  -0.717
  0.000   0.000  -0.716   0.001   0.004  -0.421   0.001   0.006
  0.000   0.000   0.001  -0.720  -0.000   0.001  -0.427  -0.000
 -0.000  -0.000   0.004  -0.000  -0.717   0.006  -0.000  -0.423
 total augmentation occupancy for first ion, spin component:           1
 21.456 -13.744   0.052  -0.139  -0.229  -0.066   0.094   0.189
-13.744   8.864  -0.097   0.107   0.233   0.093  -0.072  -0.188
  0.052  -0.097  13.363  -0.070  -0.337  -7.377   0.041   0.187
 -0.139   0.107  -0.070  13.393   0.068   0.041  -7.304  -0.047
 -0.229   0.233  -0.337   0.068  13.619   0.187  -0.047  -7.516
 -0.066   0.093  -7.377   0.041   0.187   4.089  -0.024  -0.103
  0.094  -0.072   0.041  -7.304  -0.047  -0.024   3.992   0.032
  0.189  -0.188   0.187  -0.047  -7.516  -0.103   0.032   4.164


------------------------ aborting loop because EDIFF is reached ----------------------------------------



 DIPCOR: dipole corrections for dipol
 direction  1 min pos   391, direction  2 min pos   383, direction  3 min pos   394,
 dipolmoment           0.003127     -0.000390      0.001010 electrons x Angstroem
 Tr[quadrupol]        17.966128

 energy correction for charged system         0.000000 eV
 dipol+quadrupol energy correction            0.000000 eV
 added-field ion interaction          0.000000 eV  (added to PSCEN)

 
  *************** adding dipol energy to TOTEN NOW **************** 
    FORLOC:  cpu time    0.9455: real time    0.9478
    FORHF :  cpu time   14.4746: real time   14.5122
    FORNL :  cpu time    0.6716: real time    0.6733
    OFIELD:  cpu time    0.0733: real time    0.0734

 VOLUME and BASIS-vectors are now :
 -----------------------------------------------------------------------------
  energy-cutoff  :     1000.00
  volume of cell :    42875.00
      direct lattice vectors                 reciprocal lattice vectors
    35.000000000  0.000000000  0.000000000     0.028571429  0.000000000  0.000000000
     0.000000000 35.000000000  0.000000000     0.000000000  0.028571429  0.000000000
     0.000000000  0.000000000 35.000000000     0.000000000  0.000000000  0.028571429

  length of vectors
    35.000000000 35.000000000 35.000000000     0.028571429  0.028571429  0.028571429


 FORCES acting on ions:
    Electron-Ion                     Ewald-Force                    Non-Local-Force
 -----------------------------------------------------------------------------------------------
   -.134E+03 0.104E+03 -.207E+02   0.134E+03 -.104E+03 0.208E+02   0.416E-01 0.189E+00 -.225E-01
   -.139E+03 -.971E+02 -.200E+02   0.139E+03 0.974E+02 0.202E+02   0.884E-01 -.206E+00 -.399E-01
   0.606E+02 -.161E+03 -.326E+02   -.607E+02 0.161E+03 0.322E+02   0.362E-01 0.180E+00 0.280E+00
   0.149E+03 -.546E+01 0.962E+02   -.150E+03 0.547E+01 -.957E+02   -.101E+00 -.221E-02 -.412E+00
   0.667E+02 0.160E+03 -.223E+02   -.668E+02 -.160E+03 0.219E+02   0.823E-01 -.169E+00 0.234E+00
   -.523E+02 0.380E+02 0.512E+02   0.553E+02 -.402E+02 -.558E+02   -.186E+01 0.132E+01 0.287E+01
   -.447E+02 0.389E+02 -.572E+02   0.473E+02 -.413E+02 0.620E+02   -.158E+01 0.144E+01 -.298E+01
   -.517E+02 -.361E+02 0.531E+02   0.546E+02 0.381E+02 -.579E+02   -.177E+01 -.124E+01 0.295E+01
   -.487E+02 -.366E+02 -.555E+02   0.516E+02 0.388E+02 0.601E+02   -.179E+01 -.136E+01 -.290E+01
   0.157E+02 -.768E+02 0.262E+02   -.164E+02 0.821E+02 -.288E+02   0.471E+00 -.325E+01 0.164E+01
   0.336E+02 -.295E+02 -.693E+02   -.358E+02 0.301E+02 0.747E+02   0.132E+01 -.329E+00 -.337E+01
   0.781E+01 -.240E+01 0.820E+02   -.669E+01 0.254E+01 -.878E+02   -.731E+00 -.874E-01 0.355E+01
   0.826E+02 -.183E+01 0.431E+01   -.885E+02 0.194E+01 -.378E+01   0.365E+01 -.656E-01 -.345E+00
   0.178E+02 0.743E+02 0.314E+02   -.187E+02 -.794E+02 -.344E+02   0.549E+00 0.312E+01 0.186E+01
   0.361E+02 0.325E+02 -.667E+02   -.384E+02 -.334E+02 0.720E+02   0.141E+01 0.507E+00 -.332E+01
 -----------------------------------------------------------------------------------------------
   0.153E+00 -.332E-01 -.141E-02   0.639E-13 0.284E-13 0.426E-13   -.171E+00 0.317E-01 -.719E-02
 
 
 POSITION                                       TOTAL-FORCE (eV/Angst)
 -----------------------------------------------------------------------------------
      0.95688     34.10815      1.14195         0.163717     -0.129365      0.028237
      0.99095      0.65851      1.14550         0.169606      0.122221      0.022072
     34.52055      1.10232      1.10388        -0.079188      0.168294      0.045109
     33.81789     34.94720      0.39335        -0.154040      0.007039     -0.082459
     34.46934     33.72511      1.03931        -0.076105     -0.161827      0.017055
      1.50457     33.72164      0.28342        -0.050260      0.037777      0.135562
      1.42138     33.68522      2.03103        -0.052091      0.051102     -0.138639
      1.51059      1.02310      0.25995        -0.040448     -0.037179      0.139258
      1.51626      1.05982      2.01054        -0.065940     -0.051286     -0.137075
     34.38373      2.06488      0.61357         0.010829     -0.126906      0.081228
     34.12526      1.18907      2.11807         0.051778      0.038195     -0.147459
     34.05112     34.97317     34.32620        -0.086099     -0.005047      0.128238
     32.73434     34.96644      0.50127         0.146624     -0.001848     -0.039622
     34.30961     32.80298      0.48299         0.012231      0.117194      0.092612
     34.04915     33.58459      2.03675         0.049386     -0.028365     -0.144117
 -----------------------------------------------------------------------------------
    total drift:                               -0.000022      0.000002      0.000066


--------------------------------------------------------------------------------------------------------



  FREE ENERGIE OF THE ION-ELECTRON SYSTEM (eV)
  ---------------------------------------------------
  free  energy   TOTEN  =      -140.24675010 eV

  energy  without entropy=     -140.24675010  energy(sigma->0) =     -140.24675010
 


--------------------------------------------------------------------------------------------------------


    POTLOK:  cpu time    8.7860: real time    8.8080


--------------------------------------------------------------------------------------------------------


     LOOP+:  cpu time 1308.1065: real time 1313.5953
    4ORBIT:  cpu time    0.0000: real time    0.0000

 total amount of memory used by VASP on root node  1894001. kBytes
========================================================================

   base      :      30000. kBytes
   nonl-proj :      70806. kBytes
   fftplans  :     693297. kBytes
   grid      :    1044223. kBytes
   one-center:          3. kBytes
   HF        :          9. kBytes
   nonlr-proj:        250. kBytes
   wavefun   :      55413. kBytes
 
  
  
 General timing and accounting informations for this job:
 ========================================================
  
                  Total CPU time used (sec):     1677.457
                            User time (sec):     1506.790
                          System time (sec):      170.668
                         Elapsed time (sec):     1685.431
  
                   Maximum memory used (kb):     2593900.
                   Average memory used (kb):           0.
  
                          Minor page faults:       346513
                          Major page faults:            0
                 Voluntary context switches:       153230
 
 PROFILE, used timers:      34
 =============================
 
 index                 routine                    time                            calls level
----------------------------------------------------------------------------------------------
    1    total_time                         1685.434418                                1   1
    2      w1_copy                               0.193767                            374   2
    3      fftwav_mpi                           37.626873                            368   2
    4      fftext_mpi                            0.415026                              6   2
    5      overl                                 0.000228                            171   2
    6      orth1                                 0.181077                             86   2
    7      lincom                                0.373492                            103   2
    8      fock_acc                            298.915027                             51   2
    9        w1_copy                               0.235133                          306   3
   10        fftwav_mpi                           15.234449                          306   3
   11        fock_charge_mu                       16.970648                          204   3
   12          racc0mu_hf                            0.649770                        204   4
   13        rpromu_hf                             0.673568                          204   3
   14        overl1                                0.000077                          102   3
   15        fftext_mpi                            4.220428                          102   3
   16      hamilt_local                         10.850659                            102   2
   17        vhamil                                2.482739                          102   3
   18        kinhamil                              8.367679                          102   3
   19          fftext_mpi                            8.299902                        102   4
   20      eccp                                  5.999286                            306   2
   21      w1_dscal                              1.208642                            102   2
   22      pdssyex_zheevx                        0.413157                             34   2
   23      eddiag                              310.497917                             17   2
   24        fock_acc                            298.398776                           51   3
   25          w1_copy                               0.204841                        306   4
   26          fftwav_mpi                           15.241046                        306   4
   27          fock_charge_mu                       17.056937                        204   4
   28            racc0mu_hf                            0.734323                      204   5
   29          rpromu_hf                             0.752055                        204   4
   30          overl1                                0.000072                        102   4
   31          fftext_mpi                            4.202000                        102   4
   32        fftwav_mpi                           10.207030                          102   3
   33        eccp                                  1.712620                          102   3
   34      rpro1_hf                              0.244627                            384   2
 
 Flat profile
 ============
 
             routine name                   CPU           calls
 ---------------------------------------------------------------
 total_time                           1018.514640           1
 fock_acc                              522.522550         102
 fftwav_mpi                             78.309397        1082
 fock_charge_mu                         32.643491         408
 fftext_mpi                             17.137357         312
 eccp                                    7.711906         408
 vhamil                                  2.482739         102
 rpromu_hf                               1.425623         408
 racc0mu_hf                              1.384094         408
 w1_dscal                                1.208642         102
 w1_copy                                 0.633742         986
 pdssyex_zheevx                          0.413157          34
 lincom                                  0.373492         103
 rpro1_hf                                0.244627         384
 orth1                                   0.181077          86
 eddiag                                  0.179491          17
 kinhamil                                0.067776         102
 hamilt_local                            0.000241         102
 overl                                   0.000228         171
 overl1                                  0.000148         204
 ---------------------------------------------------------------
  summed up times    1685.43441796303     
 
Profiling took   0.006639  0.004218  0.003390  0.003364 seconds
Profiling took   0.002342 seconds
