
     Program PWSCF v.7.2 starts on 12Oct2023 at 16: 5:25 

     This program is part of the open-source Quantum ESPRESSO suite
     for quantum simulation of materials; please cite
         "P. Giannozzi et al., J. Phys.:Condens. Matter 21 395502 (2009);
         "P. Giannozzi et al., J. Phys.:Condens. Matter 29 465901 (2017);
         "P. Giannozzi et al., J. Chem. Phys. 152 154105 (2020);
          URL http://www.quantum-espresso.org", 
     in publications or presentations arising from this work. More details at
     http://www.quantum-espresso.org/quote

     Parallel version (MPI), running on    32 processors

     MPI processes distributed on     1 nodes
     502436 MiB available memory on the printing compute node when the environment starts

     Reading input from H2O_NH3_dimer_O_H_contact_28_efficiency_dimer.in
Warning: card &CELL ignored
Warning: card / ignored

     Current dimensions of program PWSCF are:
     Max number of different atomic species (ntypx) = 10
     Max number of k-points (npk) =  40000
     Max angular momentum in pseudopotentials (lmaxx) =  4
     file H.pbe-kjpaw_psl.1.0.0.UPF: wavefunction(s)  1S renormalized
     file N.pbe-n-kjpaw_psl.1.0.0.UPF: wavefunction(s)  2S renormalized
     file O.pbe-nl-kjpaw_psl.1.0.0.UPF: wavefunction(s)  2S 2P renormalized

     IMPORTANT: XC functional enforced from input :
     Exchange-correlation= PBE
                           (   1   4   3   4   0   0   0)
     Any further DFT definition will be discarded
     Please, verify this is what you really want


     gamma-point specific algorithms are used

     R & G space division:  proc/nbgrp/npool/nimage =      32
     Subspace diagonalization in iterative solution of the eigenvalue problem:
     a serial algorithm will be used


     Parallelization info
     --------------------
     sticks:   dense  smooth     PW     G-vecs:    dense   smooth      PW
     Min        6395    6395   1598              2177048  2177048  272114
     Max        6398    6398   1600              2177062  2177062  272124
     Sum      204693  204693  51189             69665707 69665707 8707803

     Using Slab Decomposition



     bravais-lattice index     =            0
     lattice parameter (alat)  =      66.1404  a.u.
     unit-cell volume          =  289334.8415 (a.u.)^3
     number of atoms/cell      =            7
     number of atomic types    =            3
     number of electrons       =        16.00
     number of Kohn-Sham states=            8
     kinetic-energy cutoff     =     147.0000  Ry
     charge density cutoff     =     588.0000  Ry
     scf convergence threshold =      1.0E-08
     mixing beta               =       0.7000
     number of iterations used =            8  plain     mixing
     Exchange-correlation= PBE
                           (   1   4   3   4   0   0   0)

     celldm(1)=  66.140414  celldm(2)=   0.000000  celldm(3)=   0.000000
     celldm(4)=   0.000000  celldm(5)=   0.000000  celldm(6)=   0.000000

     crystal axes: (cart. coord. in units of alat)
               a(1) = (   1.000000   0.000000   0.000000 )  
               a(2) = (   0.000000   1.000000   0.000000 )  
               a(3) = (   0.000000   0.000000   1.000000 )  

     reciprocal axes: (cart. coord. in units 2 pi/alat)
               b(1) = (  1.000000  0.000000  0.000000 )  
               b(2) = (  0.000000  1.000000  0.000000 )  
               b(3) = (  0.000000  0.000000  1.000000 )  


     PseudoPot. # 1 for H  read from file:
     /home/users/klimj2am/src/pslibrary.1.0.0/pbe/PSEUDOPOTENTIALS/H.pbe-kjpaw_psl.1.0.0.UPF
     MD5 check sum: 220281c0717fd894cece6904c624ceaa
     Pseudo is Projector augmented-wave, Zval =  1.0
     Generated using 'atomic' code by A. Dal Corso  v.7.2
     Shape of augmentation charge: PSQ
     Using radial grid of  929 points,  2 beta functions with: 
                l(1) =   0
                l(2) =   0
     Q(r) pseudized with 0 coefficients 


     PseudoPot. # 2 for N  read from file:
     /home/users/klimj2am/src/pslibrary.1.0.0/pbe/PSEUDOPOTENTIALS/N.pbe-n-kjpaw_psl.1.0.0.UPF
     MD5 check sum: ed3381810ced4c04e88f7c2008d4036c
     Pseudo is Projector augmented-wave + core cor, Zval =  5.0
     Generated using 'atomic' code by A. Dal Corso  v.7.2
     Shape of augmentation charge: PSQ
     Using radial grid of 1085 points,  4 beta functions with: 
                l(1) =   0
                l(2) =   0
                l(3) =   1
                l(4) =   1
     Q(r) pseudized with 0 coefficients 


     PseudoPot. # 3 for O  read from file:
     /home/users/klimj2am/src/pslibrary.1.0.0/pbe/PSEUDOPOTENTIALS/O.pbe-nl-kjpaw_psl.1.0.0.UPF
     MD5 check sum: 3be12c084656f77eefcab7bec6207024
     Pseudo is Projector augmented-wave + core cor, Zval =  6.0
     Generated using 'atomic' code by A. Dal Corso  v.7.2
     Shape of augmentation charge: PSQ
     Using radial grid of 1095 points,  4 beta functions with: 
                l(1) =   0
                l(2) =   0
                l(3) =   1
                l(4) =   1
     Q(r) pseudized with 0 coefficients 


     atomic species   valence    mass     pseudopotential
        H              1.00     1.00800     H ( 1.00)
        N              5.00    14.00700     N ( 1.00)
        O              6.00    15.99900     O ( 1.00)

     No symmetry found



   Cartesian axes

     site n.     atom                  positions (alat units)
         1           H   tau(   1) = (   0.0102885   0.0007027   0.0208215  )
         2           H   tau(   2) = (  -0.0005020   0.0388821  -0.0033142  )
         3           H   tau(   3) = (  -0.0293267   0.0024580  -0.0033137  )
         4           H   tau(   4) = (   0.0193129   0.1347497   0.0093150  )
         5           H   tau(   5) = (  -0.0162179   0.1366685  -0.0153954  )
         6           N   tau(   6) = (  -0.0014133   0.0099858  -0.0039396  )
         7           O   tau(   7) = (   0.0003984   0.1188612  -0.0026962  )

     number of k points=     1
                       cart. coord. in units 2pi/alat
        k(    1) = (   0.0000000   0.0000000   0.0000000), wk =   2.0000000

     Dense  grid: 34832854 G-vectors     FFT dimensions: ( 512, 512, 512)

     Estimated max dynamical RAM per process >       1.64 GB

     Estimated total dynamical RAM >      52.39 GB

     Initial potential from superposition of free atoms

     starting charge      15.9999, renormalised to      16.0000

     negative rho (up, down):  7.863E-04 0.000E+00
     Starting wfcs are   13 randomized atomic wfcs
     Checking if some PAW data can be deallocated... 

     total cpu time spent up to now is       40.1 secs

     Self-consistent Calculation

     iteration #  1     ecut=   147.00 Ry     beta= 0.70
     Davidson diagonalization with overlap
     ethr =  1.00E-02,  avg # of iterations =  2.0

     negative rho (up, down):  1.208E-03 0.000E+00

     total cpu time spent up to now is       52.1 secs

     total energy              =     -75.35017126 Ry
     estimated scf accuracy    <       1.17872098 Ry

     iteration #  2     ecut=   147.00 Ry     beta= 0.70
     Davidson diagonalization with overlap
     ethr =  7.37E-03,  avg # of iterations =  3.0

     negative rho (up, down):  1.095E-03 0.000E+00

     total cpu time spent up to now is       64.0 secs

     total energy              =     -75.69140390 Ry
     estimated scf accuracy    <       0.88750691 Ry

     iteration #  3     ecut=   147.00 Ry     beta= 0.70
     Davidson diagonalization with overlap
     ethr =  5.55E-03,  avg # of iterations =  2.0

     negative rho (up, down):  1.134E-03 0.000E+00

     total cpu time spent up to now is       75.7 secs

     total energy              =     -75.82192688 Ry
     estimated scf accuracy    <       0.02209522 Ry

     iteration #  4     ecut=   147.00 Ry     beta= 0.70
     Davidson diagonalization with overlap
     ethr =  1.38E-04,  avg # of iterations =  5.0

     negative rho (up, down):  1.146E-03 0.000E+00

     total cpu time spent up to now is       88.7 secs

     total energy              =     -75.84017012 Ry
     estimated scf accuracy    <       0.05654532 Ry

     iteration #  5     ecut=   147.00 Ry     beta= 0.70
     Davidson diagonalization with overlap
     ethr =  1.38E-04,  avg # of iterations =  2.0

     negative rho (up, down):  1.161E-03 0.000E+00

     total cpu time spent up to now is       99.8 secs

     total energy              =     -75.83676650 Ry
     estimated scf accuracy    <       0.01994611 Ry

     iteration #  6     ecut=   147.00 Ry     beta= 0.70
     Davidson diagonalization with overlap
     ethr =  1.25E-04,  avg # of iterations =  2.0

     negative rho (up, down):  1.166E-03 0.000E+00

     total cpu time spent up to now is      111.0 secs

     total energy              =     -75.83867913 Ry
     estimated scf accuracy    <       0.00278638 Ry

     iteration #  7     ecut=   147.00 Ry     beta= 0.70
     Davidson diagonalization with overlap
     ethr =  1.74E-05,  avg # of iterations =  3.0

     negative rho (up, down):  1.168E-03 0.000E+00

     total cpu time spent up to now is      122.7 secs

     total energy              =     -75.83916527 Ry
     estimated scf accuracy    <       0.00042015 Ry

     iteration #  8     ecut=   147.00 Ry     beta= 0.70
     Davidson diagonalization with overlap
     ethr =  2.63E-06,  avg # of iterations =  2.0

     negative rho (up, down):  1.173E-03 0.000E+00

     total cpu time spent up to now is      133.9 secs

     total energy              =     -75.83913388 Ry
     estimated scf accuracy    <       0.00032225 Ry

     iteration #  9     ecut=   147.00 Ry     beta= 0.70
     Davidson diagonalization with overlap
     ethr =  2.01E-06,  avg # of iterations =  2.0

     negative rho (up, down):  1.175E-03 0.000E+00

     total cpu time spent up to now is      145.1 secs

     total energy              =     -75.83910167 Ry
     estimated scf accuracy    <       0.00013376 Ry

     iteration # 10     ecut=   147.00 Ry     beta= 0.70
     Davidson diagonalization with overlap
     ethr =  8.36E-07,  avg # of iterations =  3.0

     negative rho (up, down):  1.174E-03 0.000E+00

     total cpu time spent up to now is      156.8 secs

     total energy              =     -75.83912809 Ry
     estimated scf accuracy    <       0.00000337 Ry

     iteration # 11     ecut=   147.00 Ry     beta= 0.70
     Davidson diagonalization with overlap
     ethr =  2.11E-08,  avg # of iterations =  4.0

     negative rho (up, down):  1.173E-03 0.000E+00

     total cpu time spent up to now is      168.9 secs

     total energy              =     -75.83912903 Ry
     estimated scf accuracy    <       0.00000103 Ry

     iteration # 12     ecut=   147.00 Ry     beta= 0.70
     Davidson diagonalization with overlap
     ethr =  6.45E-09,  avg # of iterations =  4.0

     negative rho (up, down):  1.173E-03 0.000E+00

     total cpu time spent up to now is      181.7 secs

     total energy              =     -75.83912939 Ry
     estimated scf accuracy    <       0.00000301 Ry

     iteration # 13     ecut=   147.00 Ry     beta= 0.70
     Davidson diagonalization with overlap
     ethr =  6.45E-09,  avg # of iterations =  2.0

     negative rho (up, down):  1.173E-03 0.000E+00

     total cpu time spent up to now is      192.8 secs

     total energy              =     -75.83912881 Ry
     estimated scf accuracy    <       0.00000171 Ry

     iteration # 14     ecut=   147.00 Ry     beta= 0.70
     Davidson diagonalization with overlap
     ethr =  6.45E-09,  avg # of iterations =  3.0

     negative rho (up, down):  1.173E-03 0.000E+00

     total cpu time spent up to now is      204.6 secs

     total energy              =     -75.83912906 Ry
     estimated scf accuracy    <       0.00000006 Ry

     iteration # 15     ecut=   147.00 Ry     beta= 0.70
     Davidson diagonalization with overlap
     ethr =  4.03E-10,  avg # of iterations =  3.0

     negative rho (up, down):  1.173E-03 0.000E+00

     total cpu time spent up to now is      215.8 secs

     End of self-consistent calculation

          k = 0.0000 0.0000 0.0000 (****** PWs)   bands (ev):

   -25.6252 -20.8294 -13.3647 -10.9460 -10.8977  -9.5566  -7.4586  -5.7787

     highest occupied level (ev):    -5.7787

!    total energy              =     -75.83912908 Ry
     total all-electron energy =      -265.984801 Ry
     estimated scf accuracy    <          1.3E-09 Ry

     The total energy is the sum of the following terms:
     one-electron contribution =    -164.91121280 Ry
     hartree contribution      =      85.33683291 Ry
     xc contribution           =     -16.78286744 Ry
     ewald contribution        =      38.08209590 Ry
     one-center paw contrib.   =     -17.56397765 Ry

     charge density inside the Wigner-Seitz cell:   16.00000000

     reference position (x0):        -0.08731055    4.45024542   -0.11476153 bohr

     Dipole moments (with respect to x0):
     Elect  -0.2208   1.0277   0.4458 au (Ha),  -0.5612   2.6123   1.1331 Debye
     Ionic  -0.0000   0.0000  -0.0000 au (Ha),  -0.0000   0.0000  -0.0000 Debye
     Total  -0.2208   1.0277   0.4458 au (Ha),  -0.5612   2.6123   1.1331 Debye

     Electrons quadrupole moment       -261.67962467 a.u. (Ha)
          Ions quadrupole moment        234.57338075 a.u. (Ha)
         Total quadrupole moment        -27.10624392 a.u. (Ha)

     *********    MAKOV-PAYNE CORRECTION    *********

     Makov-Payne correction with Madelung constant =   2.8373

     Makov-Payne correction     0.00000000 Ry =  0.000 eV (1st order, 1/a0)
                                0.00001887 Ry =  0.000 eV (2nd order, 1/a0^3)
                                0.00001887 Ry =  0.000 eV (total)

!    Total+Makov-Payne energy  =     -75.83911020 Ry
     Corrected vacuum level    =       0.00533656 eV

     convergence has been achieved in  15 iterations

     Writing all to output data dir ./pwscf.save/

     init_run     :     36.51s CPU     39.30s WALL (       1 calls)
     electrons    :    150.37s CPU    178.53s WALL (       1 calls)

     Called by init_run:
     wfcinit      :      1.75s CPU      2.06s WALL (       1 calls)
     potinit      :      4.40s CPU      5.27s WALL (       1 calls)
     hinit0       :      5.95s CPU      6.30s WALL (       1 calls)

     Called by electrons:
     c_bands      :     45.49s CPU     48.53s WALL (      15 calls)
     sum_band     :     43.50s CPU     52.36s WALL (      15 calls)
     v_of_rho     :     32.14s CPU     39.38s WALL (      16 calls)
     newd         :     19.48s CPU     27.94s WALL (      16 calls)
     PAW_pot      :      0.23s CPU      0.24s WALL (      16 calls)
     mix_rho      :     10.01s CPU     10.67s WALL (      15 calls)

     Called by c_bands:
     init_us_2    :      0.90s CPU      0.94s WALL (      31 calls)
     init_us_2:cp :      0.90s CPU      0.94s WALL (      31 calls)
     regterg      :     44.34s CPU     47.35s WALL (      15 calls)

     Called by *egterg:
     rdiaghg      :      0.01s CPU      0.02s WALL (      57 calls)
     h_psi        :     40.17s CPU     43.35s WALL (      58 calls)
     s_psi        :      1.09s CPU      1.09s WALL (      58 calls)
     g_psi        :      0.13s CPU      0.14s WALL (      42 calls)

     Called by h_psi:
     h_psi:calbec :      0.98s CPU      1.01s WALL (      58 calls)
     vloc_psi     :     37.84s CPU     40.98s WALL (      58 calls)
     add_vuspsi   :      1.08s CPU      1.08s WALL (      58 calls)

     General routines
     calbec       :      1.26s CPU      1.29s WALL (      73 calls)
     fft          :     26.78s CPU     32.31s WALL (     144 calls)
     ffts         :      2.35s CPU      2.80s WALL (      15 calls)
     fftw         :     35.29s CPU     38.70s WALL (     416 calls)

     Parallel routines

     PWSCF        :   3m 9.01s CPU   3m42.54s WALL


   This run was terminated on:  16: 9: 8  12Oct2023            

=------------------------------------------------------------------------------=
   JOB DONE.
=------------------------------------------------------------------------------=
