 vasp.6.1.2 22Jul20 (build Jan  6 2021 09:55:43) gamma-only                      
 executed on             LinuxPGI date 2023.10.20  14:25:04
 running on   32 total cores
 distrk:  each k-point on   32 cores,    1 groups
 distr:  one band on NCORE=   1 cores,   32 groups


--------------------------------------------------------------------------------------------------------


 INCAR:
 POTCAR:    PAW_PBE H 15Jun2001                   
 POTCAR:    PAW_PBE C 08Apr2002                   
 POTCAR:    PAW_PBE O 08Apr2002                   
 -----------------------------------------------------------------------------
|                                                                             |
|           W    W    AA    RRRRR   N    N  II  N    N   GGGG   !!!           |
|           W    W   A  A   R    R  NN   N  II  NN   N  G    G  !!!           |
|           W    W  A    A  R    R  N N  N  II  N N  N  G       !!!           |
|           W WW W  AAAAAA  RRRRR   N  N N  II  N  N N  G  GGG   !            |
|           WW  WW  A    A  R   R   N   NN  II  N   NN  G    G                |
|           W    W  A    A  R    R  N    N  II  N    N   GGGG   !!!           |
|                                                                             |
|     For optimal performance we recommend to set                             |
|       NCORE = 4 - approx SQRT(number of cores).                             |
|     NCORE specifies how many cores store one orbital (NPAR=cpu/NCORE).      |
|     This setting can greatly improve the performance of VASP for DFT.       |
|     The default, NCORE=1 might be grossly inefficient on modern             |
|     multi-core architectures or massively parallel machines. Do your        |
|     own testing!!!!                                                         |
|     Unfortunately you need to use the default for GW and RPA                |
|     calculations (for HF NCORE is supported but not extensively tested      |
|     yet).                                                                   |
|                                                                             |
 -----------------------------------------------------------------------------

 POTCAR:    PAW_PBE H 15Jun2001                   
   VRHFIN =H: ultrasoft test                                                                        
   LEXCH  = PE                                                                                      
   EATOM  =    12.4884 eV,    0.9179 Ry                                                             
                                                                                                    
   TITEL  = PAW_PBE H 15Jun2001                                                                     
   LULTRA =        F    use ultrasoft PP ?                                                          
   IUNSCR =        0    unscreen: 0-lin 1-nonlin 2-no                                               
   RPACOR =    0.000    partial core radius                                                         
   POMASS =    1.000; ZVAL   =    1.000    mass and valenz                                          
   RCORE  =    1.100    outmost cutoff radius                                                       
   RWIGS  =    0.700; RWIGS  =    0.370    wigner-seitz radius (au A)                               
   ENMAX  =  250.000; ENMIN  =  200.000 eV                                                          
   RCLOC  =    0.701    cutoff for local pot                                                        
   LCOR   =        T    correct aug charges                                                         
   LPAW   =        T    paw PP                                                                      
   EAUG   =  400.000                                                                                
   RMAX   =    1.123    core radius for proj-oper                                                   
   RAUG   =    1.200    factor for augmentation sphere                                              
   RDEP   =    1.112    radius for radial grids                                                     
   RDEPT  =    0.926    core radius for aug-charge                                                  
                                                                                                    
   Atomic configuration                                                                             
    2 entries                                                                                       
     n  l   j            E        occ.                                                              
     1  0  0.50        -6.4927   1.0000                                                             
     2  1  0.50        -3.4015   0.0000                                                             
   Description                                                                                      
     l       E           TYP  RCUT    TYP  RCUT                                                     
     0     -6.4927494     23  1.100                                                                 
     0      6.8029130     23  1.100                                                                 
     1     -4.0817478     23  1.100                                                                 
  local pseudopotential read in
  atomic valenz-charges read in
  non local Contribution for L=            0  read in
    real space projection operators read in
  non local Contribution for L=            0  read in
    real space projection operators read in
  non local Contribution for L=            1  read in
    real space projection operators read in
    PAW grid and wavefunctions read in
 
   number of l-projection  operators is LMAX  =            3
   number of lm-projection operators is LMMAX =            5
 
 POTCAR:    PAW_PBE C 08Apr2002                   
   VRHFIN =C: s2p2                                                                                  
   LEXCH  = PE                                                                                      
   EATOM  =   147.1560 eV,   10.8157 Ry                                                             
                                                                                                    
   TITEL  = PAW_PBE C 08Apr2002                                                                     
   LULTRA =        F    use ultrasoft PP ?                                                          
   IUNSCR =        1    unscreen: 0-lin 1-nonlin 2-no                                               
   RPACOR =    1.200    partial core radius                                                         
   POMASS =   12.011; ZVAL   =    4.000    mass and valenz                                          
   RCORE  =    1.500    outmost cutoff radius                                                       
   RWIGS  =    1.630; RWIGS  =    0.863    wigner-seitz radius (au A)                               
   ENMAX  =  400.000; ENMIN  =  300.000 eV                                                          
   ICORE  =        2    local potential                                                             
   LCOR   =        T    correct aug charges                                                         
   LPAW   =        T    paw PP                                                                      
   EAUG   =  644.873                                                                                
   DEXC   =    0.000                                                                                
   RMAX   =    1.529    core radius for proj-oper                                                   
   RAUG   =    1.300    factor for augmentation sphere                                              
   RDEP   =    1.501    radius for radial grids                                                     
   RDEPT  =    1.300    core radius for aug-charge                                                  
                                                                                                    
   Atomic configuration                                                                             
    4 entries                                                                                       
     n  l   j            E        occ.                                                              
     1  0  0.50      -273.3789   2.0000                                                             
     2  0  0.50       -13.7508   2.0000                                                             
     2  1  0.50        -5.2854   2.0000                                                             
     3  2  1.50        -5.4423   0.0000                                                             
   Description                                                                                      
     l       E           TYP  RCUT    TYP  RCUT                                                     
     0    -13.7508458     23  1.200                                                                 
     0     -8.2022199     23  1.200                                                                 
     1     -5.2854383     23  1.500                                                                 
     1     34.0145650     23  1.500                                                                 
     2     -5.4423304      7  1.500                                                                 
  local pseudopotential read in
  partial core-charges read in
  partial kinetic energy density read in
  atomic valenz-charges read in
  non local Contribution for L=            0  read in
    real space projection operators read in
  non local Contribution for L=            0  read in
    real space projection operators read in
  non local Contribution for L=            1  read in
    real space projection operators read in
  non local Contribution for L=            1  read in
    real space projection operators read in
    PAW grid and wavefunctions read in
 
   number of l-projection  operators is LMAX  =            4
   number of lm-projection operators is LMMAX =            8
 
 POTCAR:    PAW_PBE O 08Apr2002                   
   VRHFIN =O: s2p4                                                                                  
   LEXCH  = PE                                                                                      
   EATOM  =   432.3788 eV,   31.7789 Ry                                                             
                                                                                                    
   TITEL  = PAW_PBE O 08Apr2002                                                                     
   LULTRA =        F    use ultrasoft PP ?                                                          
   IUNSCR =        1    unscreen: 0-lin 1-nonlin 2-no                                               
   RPACOR =    1.200    partial core radius                                                         
   POMASS =   16.000; ZVAL   =    6.000    mass and valenz                                          
   RCORE  =    1.520    outmost cutoff radius                                                       
   RWIGS  =    1.550; RWIGS  =    0.820    wigner-seitz radius (au A)                               
   ENMAX  =  400.000; ENMIN  =  300.000 eV                                                          
   ICORE  =        2    local potential                                                             
   LCOR   =        T    correct aug charges                                                         
   LPAW   =        T    paw PP                                                                      
   EAUG   =  605.392                                                                                
   DEXC   =    0.000                                                                                
   RMAX   =    1.553    core radius for proj-oper                                                   
   RAUG   =    1.300    factor for augmentation sphere                                              
   RDEP   =    1.550    radius for radial grids                                                     
   RDEPT  =    1.329    core radius for aug-charge                                                  
                                                                                                    
   Atomic configuration                                                                             
    4 entries                                                                                       
     n  l   j            E        occ.                                                              
     1  0  0.50      -514.6923   2.0000                                                             
     2  0  0.50       -23.9615   2.0000                                                             
     2  1  0.50        -9.0305   4.0000                                                             
     3  2  1.50        -9.5241   0.0000                                                             
   Description                                                                                      
     l       E           TYP  RCUT    TYP  RCUT                                                     
     0    -23.9615318     23  1.200                                                                 
     0     -9.5240782     23  1.200                                                                 
     1     -9.0304911     23  1.520                                                                 
     1      8.1634956     23  1.520                                                                 
     2     -9.5240782      7  1.500                                                                 
  local pseudopotential read in
  partial core-charges read in
  partial kinetic energy density read in
  kinetic energy density of atom read in
  atomic valenz-charges read in
  non local Contribution for L=            0  read in
    real space projection operators read in
  non local Contribution for L=            0  read in
    real space projection operators read in
  non local Contribution for L=            1  read in
    real space projection operators read in
  non local Contribution for L=            1  read in
    real space projection operators read in
    PAW grid and wavefunctions read in
 
   number of l-projection  operators is LMAX  =            4
   number of lm-projection operators is LMMAX =            8
 
  PAW_PBE H 15Jun2001                   :
 energy of atom  1       EATOM=  -12.4884
 kinetic energy error for atom=    0.0001 (will be added to EATOM!!)
  PAW_PBE C 08Apr2002                   :
 energy of atom  2       EATOM= -147.1560
 kinetic energy error for atom=    0.0010 (will be added to EATOM!!)
  PAW_PBE O 08Apr2002                   :
 energy of atom  3       EATOM= -432.3788
 kinetic energy error for atom=    0.0022 (will be added to EATOM!!)
 
 
 POSCAR:  H  C  O
  positions in cartesian coordinates
  No initial velocities read in
 exchange correlation table for  LEXCH =        8
   RHO(1)=    0.500       N(1)  =     2000
   RHO(2)=  100.500       N(2)  =     4000
 


--------------------------------------------------------------------------------------------------------


 ion  position               nearest neighbor table
   1  0.001  0.195  0.978-   6 0.96
   2  0.000  0.197  0.021-   6 0.96
   3  0.000  0.003  0.000-   4 1.17   5 1.17
   4  0.000  0.036  0.000-   3 1.17
   5  0.000  0.969  0.000-   3 1.17
   6  0.000  0.179  0.000-   2 0.96   1 0.96
 
  LATTYP: Found a simple cubic cell.
 ALAT       =    35.0000000000
  
  Lattice vectors:
  
 A1 = (  35.0000000000,   0.0000000000,   0.0000000000)
 A2 = (   0.0000000000,  35.0000000000,   0.0000000000)
 A3 = (   0.0000000000,   0.0000000000,  35.0000000000)


Analysis of symmetry for initial positions (statically):
=====================================================================
 Subroutine PRICEL returns:
 Original cell was already a primitive cell.
 

 Routine SETGRP: Setting up the symmetry group for a 
 simple cubic supercell.


 Subroutine GETGRP returns: Found  1 space group operations
 (whereof  1 operations were pure point group operations)
 out of a pool of 48 trial point group operations.


The static configuration has the point symmetry C_1 .


Analysis of symmetry for dynamics (positions and initial velocities):
=====================================================================
 Subroutine PRICEL returns:
 Original cell was already a primitive cell.
 

 Routine SETGRP: Setting up the symmetry group for a 
 simple cubic supercell.


 Subroutine GETGRP returns: Found  1 space group operations
 (whereof  1 operations were pure point group operations)
 out of a pool of 48 trial point group operations.


The dynamic configuration has the point symmetry C_1 .


 Subroutine INISYM returns: Found  1 space group operations
 (whereof  1 operations are pure point group operations),
 and found     1 'primitive' translations


----------------------------------------------------------------------------------------

                                     Primitive cell                                     

  volume of cell :   42875.0000

  direct lattice vectors                    reciprocal lattice vectors
    35.000000000  0.000000000  0.000000000     0.028571429  0.000000000  0.000000000
     0.000000000 35.000000000  0.000000000     0.000000000  0.028571429  0.000000000
     0.000000000  0.000000000 35.000000000     0.000000000  0.000000000  0.028571429

  length of vectors
    35.000000000 35.000000000 35.000000000     0.028571429  0.028571429  0.028571429

  position of ions in fractional coordinates (direct lattice)
     0.000848682  0.194647070  0.977571084
     0.000390051  0.196701243  0.020841195
     0.000000000  0.002521600  0.000000000
     0.000000000  0.035956457  0.000000000
     0.000000000  0.969086743  0.000000000
     0.000000000  0.178813600  0.000000000

  ion indices of the primitive-cell ions
   primitive index   ion index
                 1           1
                 2           2
                 3           3
                 4           4
                 5           5
                 6           6

----------------------------------------------------------------------------------------

 
 
 KPOINTS: g                                       

Automatic generation of k-mesh.
Space group operators:
 irot       det(A)        alpha          n_x          n_y          n_z        tau_x        tau_y        tau_z
    1     1.000000     0.000000     1.000000     0.000000     0.000000     0.000000     0.000000     0.000000
 
 Subroutine IBZKPT returns following result:
 ===========================================
 
 Found      1 irreducible k-points:
 
 Following reciprocal coordinates:
            Coordinates               Weight
  0.000000  0.000000  0.000000      1.000000
 
 Following cartesian coordinates:
            Coordinates               Weight
  0.000000  0.000000  0.000000      1.000000
 


--------------------------------------------------------------------------------------------------------




 Dimension of arrays:
   k-points           NKPTS =      1   k-points in BZ     NKDIM =      1   number of bands    NBANDS=     32
   number of dos      NEDOS =    301   number of ions     NIONS =      6
   non local maximal  LDIM  =      4   non local SUM 2l+1 LMDIM =      8
   total plane-waves  NPLWV = ******
   max r-space proj   IRMAX =      1   max aug-charges    IRDMAX=  16541
   dimension x,y,z NGX =   378 NGY =  378 NGZ =  378
   dimension x,y,z NGXF=   756 NGYF=  756 NGZF=  756
   support grid    NGXF=   756 NGYF=  756 NGZF=  756
   ions per type =               2   1   3
   NGX,Y,Z   is equivalent  to a cutoff of  17.95, 17.95, 17.95 a.u.
   NGXF,Y,Z  is equivalent  to a cutoff of  35.91, 35.91, 35.91 a.u.

 SYSTEM =  C                                       
 POSCAR =   H  C  O                                

 Startparameter for this run:
   NWRITE =      2    write-flag & timer
   PREC   = acc       normal or accurate (medium, high low for compatibility)
   ISTART =      0    job   : 0-new  1-cont  2-samecut
   ICHARG =      2    charge: 1-file 2-atom 10-const
   ISPIN  =      1    spin polarized calculation?
   LNONCOLLINEAR =      F non collinear calculations
   LSORBIT =      F    spin-orbit coupling
   INIWAV =      1    electr: 0-lowe 1-rand  2-diag
   LASPH  =      T    aspherical Exc in radial PAW
   METAGGA=      F    non-selfconsistent MetaGGA calc.

 Electronic Relaxation 1
   ENCUT  = 1000.0 eV  73.50 Ry    8.57 a.u.  90.25 90.25 90.25*2*pi/ulx,y,z
   ENINI  = 1000.0     initial cutoff
   ENAUG  =  644.9 eV  augmentation charge cutoff
   NELM   =     60;   NELMIN=  2; NELMDL= -5     # of ELM steps 
   EDIFF  = 0.1E-06   stopping-criterion for ELM
   LREAL  =      F    real-space projection
   NLSPLINE    = F    spline interpolate recip. space projectors
   LCOMPAT=      F    compatible to vasp.4.4
   GGA_COMPAT  = T    GGA compatible to vasp.4.4-vasp.4.6
   LMAXPAW     = -100 max onsite density
   LMAXMIX     =    2 max onsite mixed and CHGCAR
   VOSKOWN=      0    Vosko Wilk Nusair interpolation
   ROPT   =    0.00000   0.00000   0.00000
 Ionic relaxation
   EDIFFG = 0.1E-05   stopping-criterion for IOM
   NSW    =      0    number of steps for IOM
   NBLOCK =      1;   KBLOCK =      1    inner block; outer block 
   IBRION =     -1    ionic relax: 0-MD 1-quasi-New 2-CG
   NFREE  =      0    steps in history (QN), initial steepest desc. (CG)
   ISIF   =      2    stress and relaxation
   IWAVPR =     10    prediction:  0-non 1-charg 2-wave 3-comb
   ISYM   =      2    0-nonsym 1-usesym 2-fastsym
   LCORR  =      T    Harris-Foulkes like correction to forces

   POTIM  = 0.5000    time-step for ionic-motion
   TEIN   =    0.0    initial temperature
   TEBEG  =    0.0;   TEEND  =   0.0 temperature during run
   SMASS  =  -3.00    Nose mass-parameter (am)
   estimated Nose-frequenzy (Omega)   =  0.10E-29 period in steps = 0.13E+47 mass=  -0.280E-25a.u.
   SCALEE = 1.0000    scale energy and forces
   NPACO  =    256;   APACO  = 16.0  distance and # of slots for P.C.
   PSTRESS=    0.0 pullay stress

  Mass of Ions in am
   POMASS =   1.00 12.01 16.00
  Ionic Valenz
   ZVAL   =   1.00  4.00  6.00
  Atomic Wigner-Seitz radii
   RWIGS  =  -1.00 -1.00 -1.00
  virtual crystal weights 
   VCA    =   1.00  1.00  1.00
   NELECT =      24.0000    total number of electrons
   NUPDOWN=      -1.0000    fix difference up-down

 DOS related values:
   EMIN   =  10.00;   EMAX   =-10.00  energy-range for DOS
   EFERMI =   0.00
   ISMEAR =     0;   SIGMA  =   0.01  broadening in eV -4-tet -1-fermi 0-gaus

 Electronic relaxation 2 (details)
   IALGO  =     38    algorithm
   LDIAG  =      T    sub-space diagonalisation (order eigenvalues)
   LSUBROT=      F    optimize rotation matrix (better conditioning)
   TURBO    =      0    0=normal 1=particle mesh
   IRESTART =      0    0=no restart 2=restart with 2 vectors
   NREBOOT  =      0    no. of reboots
   NMIN     =      0    reboot dimension
   EREF     =   0.00    reference energy to select bands
   IMIX   =      4    mixing-type and parameters
     AMIX     =   0.40;   BMIX     =  1.00
     AMIX_MAG =   1.60;   BMIX_MAG =  1.00
     AMIN     =   0.10
     WC   =   100.;   INIMIX=   1;  MIXPRE=   1;  MAXMIX= -45

 Intra band minimization:
   WEIMIN = 0.0000     energy-eigenvalue tresh-hold
   EBREAK =  0.78E-09  absolut break condition
   DEPER  =   0.30     relativ break condition  

   TIME   =   0.40     timestep for ELM

  volume/ion in A,a.u.               =    7145.83     48222.46
  Fermi-wavevector in a.u.,A,eV,Ry     =   0.134920  0.254962  0.247673  0.018203
  Thomas-Fermi vector in A             =   0.783236
 
 Write flags
   LWAVE        =      T    write WAVECAR
   LDOWNSAMPLE  =      F    k-point downsampling of WAVECAR
   LCHARG       =      T    write CHGCAR
   LVTOT        =      F    write LOCPOT, total local potential
   LVHAR        =      F    write LOCPOT, Hartree potential only
   LELF         =      F    write electronic localiz. function (ELF)
   LORBIT       =      0    0 simple, 1 ext, 2 COOP (PROOUT), +10 PAW based schemes


 Dipole corrections
   LMONO  =      F    monopole corrections only (constant potential shift)
   LDIPOL =      F    correct potential (dipole corrections)
   IDIPOL =      4    1-x, 2-y, 3-z, 4-all directions 
   EPSILON=  1.0000000 bulk dielectric constant

 Exchange correlation treatment:
   GGA     =    --    GGA type
   LEXCH   =     8    internal setting for exchange type
   VOSKOWN=      0    Vosko Wilk Nusair interpolation
   LHFCALC =     F    Hartree Fock is set to
   LHFONE  =     F    Hartree Fock one center treatment
   AEXX    =    0.0000 exact exchange contribution

 Linear response parameters
   LEPSILON=     F    determine dielectric tensor
   LRPA    =     F    only Hartree local field effects (RPA)
   LNABLA  =     F    use nabla operator in PAW spheres
   LVEL    =     F    velocity operator in full k-point grid
   LINTERFAST=   F  fast interpolation
   KINTER  =     0    interpolate to denser k-point grid
   CSHIFT  =0.1000    complex shift for real part using Kramers Kronig
   OMEGAMAX=  -1.0    maximum frequency
   DEG_THRESHOLD= 0.2000000E-02 threshold for treating states as degnerate
   RTIME   =   -0.100 relaxation time in fs
  (WPLASMAI=    0.000 imaginary part of plasma frequency in eV, 0.658/RTIME)
   DFIELD  = 0.0000000 0.0000000 0.0000000 field for delta impulse in time
 
 Orbital magnetization related:
   ORBITALMAG=     F  switch on orbital magnetization
   LCHIMAG   =     F  perturbation theory with respect to B field
   DQ        =  0.001000  dq finite difference perturbation B field
   LLRAUG    =     F  two centre corrections for induced B field



--------------------------------------------------------------------------------------------------------


 Static calculation
 charge density and potential will be updated during run
 non-spin polarized calculation
 Variant of blocked Davidson
 Davidson routine will perform the subspace rotation
 perform sub-space diagonalisation
    after iterative eigenvector-optimisation
 modified Broyden-mixing scheme, WC =      100.0
 initial mixing is a Kerker type mixing with AMIX =  0.4000 and BMIX =      1.0000
 Hartree-type preconditioning will be used
 using additional bands            20
 reciprocal scheme for non local part
 use partial core corrections
 calculate Harris-corrections to forces 
   (improved forces if not selfconsistent)
 use gradient corrections 
 use of overlap-Matrix (Vanderbilt PP)
 Gauss-broadening in eV      SIGMA  =   0.01


--------------------------------------------------------------------------------------------------------


  energy-cutoff  :     1000.00
  volume of cell :    42875.00
      direct lattice vectors                 reciprocal lattice vectors
    35.000000000  0.000000000  0.000000000     0.028571429  0.000000000  0.000000000
     0.000000000 35.000000000  0.000000000     0.000000000  0.028571429  0.000000000
     0.000000000  0.000000000 35.000000000     0.000000000  0.000000000  0.028571429

  length of vectors
    35.000000000 35.000000000 35.000000000     0.028571429  0.028571429  0.028571429


 
 k-points in units of 2pi/SCALE and weight: g                                       
   0.00000000  0.00000000  0.00000000       1.000
 
 k-points in reciprocal lattice and weights: g                                       
   0.00000000  0.00000000  0.00000000       1.000
 
 position of ions in fractional coordinates (direct lattice) 
   0.00084868  0.19464707  0.97757108
   0.00039005  0.19670124  0.02084119
   0.00000000  0.00252160  0.00000000
   0.00000000  0.03595646  0.00000000
   0.00000000  0.96908674  0.00000000
   0.00000000  0.17881360  0.00000000
 
 position of ions in cartesian coordinates  (Angst):
   0.02970387  6.81264746 34.21498793
   0.01365177  6.88454352  0.72944182
   0.00000000  0.08825600  0.00000000
   0.00000000  1.25847600  0.00000000
   0.00000000 33.91803600  0.00000000
   0.00000000  6.25847600  0.00000000
 


--------------------------------------------------------------------------------------------------------


 use serial FFT for orbitals x direction half grid
 k-point   1 :   0.0000 0.0000 0.0000  plane waves: 1539209

 maximum and minimum number of plane-waves per node :   1539209  1539209

 maximum number of plane-waves:   1539209
 maximum index in each direction: 
   IXMAX=   90   IYMAX=   90   IZMAX=   90
   IXMIN=    0   IYMIN=  -90   IZMIN=  -90


 serial   3D FFT for wavefunctions
 parallel 3D FFT for charge:
    minimum data exchange during FFTs selected (reduces bandwidth)


 total amount of memory used by VASP MPI-rank0  4216433. kBytes
=======================================================================

   base      :      30000. kBytes
   nonl-proj :     443298. kBytes
   fftplans  :     676185. kBytes
   grid      :    3042313. kBytes
   one-center:          9. kBytes
   wavefun   :      24628. kBytes
 
     INWAV:  cpu time    0.0000: real time    0.0000
 Broyden mixing: mesh for mixing (old mesh)
   NGX =181   NGY =181   NGZ =181
  (NGX  =756   NGY  =756   NGZ  =756)
  gives a total of ****** points

 initial charge density was supplied:
 charge density of overlapping atoms calculated
 number of electron      24.0000000 magnetization 
 keeping initial charge density in first step


--------------------------------------------------------------------------------------------------------


 Maximum index for augmentation-charges           765 (set IRDMAX)


--------------------------------------------------------------------------------------------------------


 First call to EWALD:  gamma=   0.051
 Maximum number of real-space cells 3x 3x 3
 Maximum number of reciprocal cells 3x 3x 3

    FEWALD:  cpu time    0.0008: real time    0.0008


--------------------------------------- Iteration      1(   1)  ---------------------------------------


    POTLOK:  cpu time   13.5772: real time   13.6007
    SETDIJ:  cpu time    0.0491: real time    0.0496
     EDDAV:  cpu time   19.4226: real time   19.4679
       DOS:  cpu time    0.0041: real time    0.0041
    --------------------------------------------
      LOOP:  cpu time   33.0531: real time   33.1222

 eigenvalue-minimisations  :   128
 total energy-change (2. order) : 0.2033094E+03  (-0.4506018E+03)
 number of electron      24.0000000 magnetization 
 augmentation part       24.0000000 magnetization 

 Free energy of the ion-electron system (eV)
  ---------------------------------------------------
  alpha Z        PSCENC =         0.05311416
  Ewald energy   TEWEN  =       968.85946513
  -Hartree energ DENC   =     -2131.71422938
  -exchange      EXHF   =         0.00000000
  -V(xc)+E(xc)   XCENC  =        99.79776006
  PAW double counting   =      1152.43853192    -1158.42170530
  entropy T*S    EENTRO =        -0.00014407
  eigenvalues    EBANDS =      -196.96497661
  atomic energy  EATOM  =      1469.26154948
  Solvation  Ediel_sol  =         0.00000000
  ---------------------------------------------------
  free energy    TOTEN  =       203.30936540 eV

  energy without entropy =      203.30950947  energy(sigma->0) =      203.30943743


--------------------------------------------------------------------------------------------------------




--------------------------------------- Iteration      1(   2)  ---------------------------------------


     EDDAV:  cpu time   19.4374: real time   19.4765
       DOS:  cpu time    0.0050: real time    0.0050
    --------------------------------------------
      LOOP:  cpu time   19.4424: real time   19.4815

 eigenvalue-minimisations  :   128
 total energy-change (2. order) :-0.1804664E+03  (-0.1804533E+03)
 number of electron      24.0000000 magnetization 
 augmentation part       24.0000000 magnetization 

 Free energy of the ion-electron system (eV)
  ---------------------------------------------------
  alpha Z        PSCENC =         0.05311416
  Ewald energy   TEWEN  =       968.85946513
  -Hartree energ DENC   =     -2131.71422938
  -exchange      EXHF   =         0.00000000
  -V(xc)+E(xc)   XCENC  =        99.79776006
  PAW double counting   =      1152.43853192    -1158.42170530
  entropy T*S    EENTRO =        -0.00000000
  eigenvalues    EBANDS =      -377.43153339
  atomic energy  EATOM  =      1469.26154948
  Solvation  Ediel_sol  =         0.00000000
  ---------------------------------------------------
  free energy    TOTEN  =        22.84295269 eV

  energy without entropy =       22.84295269  energy(sigma->0) =       22.84295269


--------------------------------------------------------------------------------------------------------




--------------------------------------- Iteration      1(   3)  ---------------------------------------


     EDDAV:  cpu time   11.5638: real time   11.5909
       DOS:  cpu time    0.0060: real time    0.0060
    --------------------------------------------
      LOOP:  cpu time   11.5698: real time   11.5969

 eigenvalue-minimisations  :    64
 total energy-change (2. order) :-0.6065109E+02  (-0.6065109E+02)
 number of electron      24.0000000 magnetization 
 augmentation part       24.0000000 magnetization 

 Free energy of the ion-electron system (eV)
  ---------------------------------------------------
  alpha Z        PSCENC =         0.05311416
  Ewald energy   TEWEN  =       968.85946513
  -Hartree energ DENC   =     -2131.71422938
  -exchange      EXHF   =         0.00000000
  -V(xc)+E(xc)   XCENC  =        99.79776006
  PAW double counting   =      1152.43853192    -1158.42170530
  entropy T*S    EENTRO =        -0.00000000
  eigenvalues    EBANDS =      -438.08262347
  atomic energy  EATOM  =      1469.26154948
  Solvation  Ediel_sol  =         0.00000000
  ---------------------------------------------------
  free energy    TOTEN  =       -37.80813739 eV

  energy without entropy =      -37.80813739  energy(sigma->0) =      -37.80813739


--------------------------------------------------------------------------------------------------------




--------------------------------------- Iteration      1(   4)  ---------------------------------------


     EDDAV:  cpu time   11.5937: real time   11.6170
       DOS:  cpu time    0.0044: real time    0.0044
    --------------------------------------------
      LOOP:  cpu time   11.5981: real time   11.6214

 eigenvalue-minimisations  :    64
 total energy-change (2. order) :-0.3230693E+01  (-0.3230693E+01)
 number of electron      24.0000000 magnetization 
 augmentation part       24.0000000 magnetization 

 Free energy of the ion-electron system (eV)
  ---------------------------------------------------
  alpha Z        PSCENC =         0.05311416
  Ewald energy   TEWEN  =       968.85946513
  -Hartree energ DENC   =     -2131.71422938
  -exchange      EXHF   =         0.00000000
  -V(xc)+E(xc)   XCENC  =        99.79776006
  PAW double counting   =      1152.43853192    -1158.42170530
  entropy T*S    EENTRO =        -0.00000000
  eigenvalues    EBANDS =      -441.31331665
  atomic energy  EATOM  =      1469.26154948
  Solvation  Ediel_sol  =         0.00000000
  ---------------------------------------------------
  free energy    TOTEN  =       -41.03883057 eV

  energy without entropy =      -41.03883057  energy(sigma->0) =      -41.03883057


--------------------------------------------------------------------------------------------------------




--------------------------------------- Iteration      1(   5)  ---------------------------------------


     EDDAV:  cpu time   19.4378: real time   19.4780
       DOS:  cpu time    0.0026: real time    0.0026
    CHARGE:  cpu time    5.2829: real time    5.2903
    MIXING:  cpu time    0.2007: real time    0.2011
    --------------------------------------------
      LOOP:  cpu time   24.9240: real time   24.9720

 eigenvalue-minimisations  :   128
 total energy-change (2. order) :-0.5819240E-01  (-0.5819241E-01)
 number of electron      23.9999998 magnetization 
 augmentation part        2.3646292 magnetization 

 Broyden mixing:
  rms(total) = 0.12496E+01    rms(broyden)= 0.12496E+01
  rms(prec ) = 0.12817E+01
  weight for this iteration     100.00

 Free energy of the ion-electron system (eV)
  ---------------------------------------------------
  alpha Z        PSCENC =         0.05311416
  Ewald energy   TEWEN  =       968.85946513
  -Hartree energ DENC   =     -2131.71422938
  -exchange      EXHF   =         0.00000000
  -V(xc)+E(xc)   XCENC  =        99.79776006
  PAW double counting   =      1152.43853192    -1158.42170530
  entropy T*S    EENTRO =        -0.00000000
  eigenvalues    EBANDS =      -441.37150905
  atomic energy  EATOM  =      1469.26154948
  Solvation  Ediel_sol  =         0.00000000
  ---------------------------------------------------
  free energy    TOTEN  =       -41.09702297 eV

  energy without entropy =      -41.09702297  energy(sigma->0) =      -41.09702297


--------------------------------------------------------------------------------------------------------




--------------------------------------- Iteration      1(   6)  ---------------------------------------


    POTLOK:  cpu time   13.2569: real time   13.2786
    SETDIJ:  cpu time    0.0485: real time    0.0485
     EDDAV:  cpu time   11.5777: real time   11.6010
       DOS:  cpu time    0.0133: real time    0.0133
    CHARGE:  cpu time    5.3862: real time    5.3935
    MIXING:  cpu time    0.2529: real time    0.2561
    --------------------------------------------
      LOOP:  cpu time   30.5355: real time   30.5910

 eigenvalue-minimisations  :    64
 total energy-change (2. order) : 0.3494691E+01  (-0.1985650E+01)
 number of electron      23.9999999 magnetization 
 augmentation part        2.0327468 magnetization 

 Broyden mixing:
  rms(total) = 0.54706E+00    rms(broyden)= 0.54706E+00
  rms(prec ) = 0.55374E+00
  weight for this iteration     100.00

 eigenvalues of (default mixing * dielectric matrix)
  average eigenvalue GAMMA=   0.9628
  0.9628

 Free energy of the ion-electron system (eV)
  ---------------------------------------------------
  alpha Z        PSCENC =         0.05311416
  Ewald energy   TEWEN  =       968.85946513
  -Hartree energ DENC   =     -2183.17756235
  -exchange      EXHF   =         0.00000000
  -V(xc)+E(xc)   XCENC  =       102.74958737
  PAW double counting   =      1513.70152899    -1520.47513180
  entropy T*S    EENTRO =        -0.00000000
  eigenvalues    EBANDS =      -388.57488264
  atomic energy  EATOM  =      1469.26154948
  Solvation  Ediel_sol  =         0.00000000
  ---------------------------------------------------
  free energy    TOTEN  =       -37.60233167 eV

  energy without entropy =      -37.60233167  energy(sigma->0) =      -37.60233167


--------------------------------------------------------------------------------------------------------




--------------------------------------- Iteration      1(   7)  ---------------------------------------


    POTLOK:  cpu time   13.3330: real time   13.3548
    SETDIJ:  cpu time    0.0484: real time    0.0484
     EDDAV:  cpu time   19.4592: real time   19.4973
       DOS:  cpu time    0.0069: real time    0.0070
    CHARGE:  cpu time    5.1648: real time    5.1723
    MIXING:  cpu time    0.2267: real time    0.2280
    --------------------------------------------
      LOOP:  cpu time   38.2391: real time   38.3078

 eigenvalue-minimisations  :   128
 total energy-change (2. order) : 0.2476856E+00  (-0.5033248E-01)
 number of electron      23.9999999 magnetization 
 augmentation part        2.0498162 magnetization 

 Broyden mixing:
  rms(total) = 0.32284E+00    rms(broyden)= 0.32284E+00
  rms(prec ) = 0.32720E+00
  weight for this iteration     100.00

 eigenvalues of (default mixing * dielectric matrix)
  average eigenvalue GAMMA=   1.6187
  0.9681  2.2692

 Free energy of the ion-electron system (eV)
  ---------------------------------------------------
  alpha Z        PSCENC =         0.05311416
  Ewald energy   TEWEN  =       968.85946513
  -Hartree energ DENC   =     -2191.45575307
  -exchange      EXHF   =         0.00000000
  -V(xc)+E(xc)   XCENC  =       103.11136551
  PAW double counting   =      1728.07334344    -1734.73394750
  entropy T*S    EENTRO =        -0.00000000
  eigenvalues    EBANDS =      -380.52378322
  atomic energy  EATOM  =      1469.26154948
  Solvation  Ediel_sol  =         0.00000000
  ---------------------------------------------------
  free energy    TOTEN  =       -37.35464607 eV

  energy without entropy =      -37.35464607  energy(sigma->0) =      -37.35464607


--------------------------------------------------------------------------------------------------------




--------------------------------------- Iteration      1(   8)  ---------------------------------------


    POTLOK:  cpu time   13.2828: real time   13.3045
    SETDIJ:  cpu time    0.0484: real time    0.0485
     EDDAV:  cpu time   15.5108: real time   15.5433
       DOS:  cpu time    0.0027: real time    0.0027
    CHARGE:  cpu time    5.4189: real time    5.4262
    MIXING:  cpu time    0.2485: real time    0.2490
    --------------------------------------------
      LOOP:  cpu time   34.5122: real time   34.5741

 eigenvalue-minimisations  :    96
 total energy-change (2. order) : 0.1543679E+00  (-0.2762108E-01)
 number of electron      23.9999999 magnetization 
 augmentation part        2.0385698 magnetization 

 Broyden mixing:
  rms(total) = 0.57975E-01    rms(broyden)= 0.57975E-01
  rms(prec ) = 0.60660E-01
  weight for this iteration     100.00

 eigenvalues of (default mixing * dielectric matrix)
  average eigenvalue GAMMA=   1.4448
  2.4284  0.9959  0.9101

 Free energy of the ion-electron system (eV)
  ---------------------------------------------------
  alpha Z        PSCENC =         0.05311416
  Ewald energy   TEWEN  =       968.85946513
  -Hartree energ DENC   =     -2205.31717160
  -exchange      EXHF   =         0.00000000
  -V(xc)+E(xc)   XCENC  =       103.81421627
  PAW double counting   =      2075.86994225    -2082.48252944
  entropy T*S    EENTRO =        -0.00000000
  eigenvalues    EBANDS =      -367.25886440
  atomic energy  EATOM  =      1469.26154948
  Solvation  Ediel_sol  =         0.00000000
  ---------------------------------------------------
  free energy    TOTEN  =       -37.20027815 eV

  energy without entropy =      -37.20027815  energy(sigma->0) =      -37.20027815


--------------------------------------------------------------------------------------------------------




--------------------------------------- Iteration      1(   9)  ---------------------------------------


    POTLOK:  cpu time   13.3338: real time   13.3553
    SETDIJ:  cpu time    0.0485: real time    0.0486
     EDDAV:  cpu time   19.4301: real time   19.4706
       DOS:  cpu time    0.0061: real time    0.0061
    CHARGE:  cpu time    5.2414: real time    5.2489
    MIXING:  cpu time    0.2822: real time    0.2827
    --------------------------------------------
      LOOP:  cpu time   38.3421: real time   38.4121

 eigenvalue-minimisations  :   128
 total energy-change (2. order) : 0.5085185E-02  (-0.1198736E-02)
 number of electron      23.9999999 magnetization 
 augmentation part        2.0343320 magnetization 

 Broyden mixing:
  rms(total) = 0.27686E-01    rms(broyden)= 0.27686E-01
  rms(prec ) = 0.30388E-01
  weight for this iteration     100.00

 eigenvalues of (default mixing * dielectric matrix)
  average eigenvalue GAMMA=   1.5112
  2.4213  0.9672  0.9672  1.6891

 Free energy of the ion-electron system (eV)
  ---------------------------------------------------
  alpha Z        PSCENC =         0.05311416
  Ewald energy   TEWEN  =       968.85946513
  -Hartree energ DENC   =     -2206.47350472
  -exchange      EXHF   =         0.00000000
  -V(xc)+E(xc)   XCENC  =       103.85491150
  PAW double counting   =      2109.73710098    -2116.32934467
  entropy T*S    EENTRO =        -0.00000000
  eigenvalues    EBANDS =      -366.15848483
  atomic energy  EATOM  =      1469.26154948
  Solvation  Ediel_sol  =         0.00000000
  ---------------------------------------------------
  free energy    TOTEN  =       -37.19519297 eV

  energy without entropy =      -37.19519297  energy(sigma->0) =      -37.19519297


--------------------------------------------------------------------------------------------------------




--------------------------------------- Iteration      1(  10)  ---------------------------------------


    POTLOK:  cpu time   13.3252: real time   13.3468
    SETDIJ:  cpu time    0.0484: real time    0.0485
     EDDAV:  cpu time   11.5966: real time   11.6196
       DOS:  cpu time    0.0108: real time    0.0108
    CHARGE:  cpu time    5.1769: real time    5.1843
    MIXING:  cpu time    0.2582: real time    0.2589
    --------------------------------------------
      LOOP:  cpu time   30.4162: real time   30.4689

 eigenvalue-minimisations  :    64
 total energy-change (2. order) :-0.3703625E-02  (-0.4663291E-03)
 number of electron      23.9999999 magnetization 
 augmentation part        2.0356134 magnetization 

 Broyden mixing:
  rms(total) = 0.10130E-01    rms(broyden)= 0.10130E-01
  rms(prec ) = 0.13322E-01
  weight for this iteration     100.00

 eigenvalues of (default mixing * dielectric matrix)
  average eigenvalue GAMMA=   1.6392
  2.4249  2.4249  0.9694  0.9694  1.4071

 Free energy of the ion-electron system (eV)
  ---------------------------------------------------
  alpha Z        PSCENC =         0.05311416
  Ewald energy   TEWEN  =       968.85946513
  -Hartree energ DENC   =     -2206.90245547
  -exchange      EXHF   =         0.00000000
  -V(xc)+E(xc)   XCENC  =       103.83554221
  PAW double counting   =      2112.29012314    -2118.85429762
  entropy T*S    EENTRO =        -0.00000000
  eigenvalues    EBANDS =      -365.74193764
  atomic energy  EATOM  =      1469.26154948
  Solvation  Ediel_sol  =         0.00000000
  ---------------------------------------------------
  free energy    TOTEN  =       -37.19889659 eV

  energy without entropy =      -37.19889659  energy(sigma->0) =      -37.19889659


--------------------------------------------------------------------------------------------------------




--------------------------------------- Iteration      1(  11)  ---------------------------------------


    POTLOK:  cpu time   13.3401: real time   13.3624
    SETDIJ:  cpu time    0.0597: real time    0.0598
     EDDAV:  cpu time   15.4816: real time   15.5125
       DOS:  cpu time    0.0131: real time    0.0131
    CHARGE:  cpu time    5.1489: real time    5.1561
    MIXING:  cpu time    0.2616: real time    0.2621
    --------------------------------------------
      LOOP:  cpu time   34.3050: real time   34.3660

 eigenvalue-minimisations  :    96
 total energy-change (2. order) :-0.7019161E-02  (-0.2266886E-03)
 number of electron      23.9999999 magnetization 
 augmentation part        2.0344520 magnetization 

 Broyden mixing:
  rms(total) = 0.55732E-02    rms(broyden)= 0.55732E-02
  rms(prec ) = 0.77617E-02
  weight for this iteration     100.00

 eigenvalues of (default mixing * dielectric matrix)
  average eigenvalue GAMMA=   1.7409
  3.4660  2.4619  1.4604  0.9309  0.9309  1.1952

 Free energy of the ion-electron system (eV)
  ---------------------------------------------------
  alpha Z        PSCENC =         0.05311416
  Ewald energy   TEWEN  =       968.85946513
  -Hartree energ DENC   =     -2208.23957438
  -exchange      EXHF   =         0.00000000
  -V(xc)+E(xc)   XCENC  =       103.85560250
  PAW double counting   =      2110.05109720    -2116.60834143
  entropy T*S    EENTRO =        -0.00000000
  eigenvalues    EBANDS =      -364.43882842
  atomic energy  EATOM  =      1469.26154948
  Solvation  Ediel_sol  =         0.00000000
  ---------------------------------------------------
  free energy    TOTEN  =       -37.20591575 eV

  energy without entropy =      -37.20591575  energy(sigma->0) =      -37.20591575


--------------------------------------------------------------------------------------------------------




--------------------------------------- Iteration      1(  12)  ---------------------------------------


    POTLOK:  cpu time   13.2808: real time   13.3027
    SETDIJ:  cpu time    0.0483: real time    0.0483
     EDDAV:  cpu time   11.5611: real time   11.5847
       DOS:  cpu time    0.0154: real time    0.0155
    CHARGE:  cpu time    5.1974: real time    5.2046
    MIXING:  cpu time    0.2711: real time    0.2716
    --------------------------------------------
      LOOP:  cpu time   30.3741: real time   30.4274

 eigenvalue-minimisations  :    64
 total energy-change (2. order) :-0.6633748E-02  (-0.1591598E-03)
 number of electron      23.9999999 magnetization 
 augmentation part        2.0342222 magnetization 

 Broyden mixing:
  rms(total) = 0.34892E-02    rms(broyden)= 0.34892E-02
  rms(prec ) = 0.47391E-02
  weight for this iteration     100.00

 eigenvalues of (default mixing * dielectric matrix)
  average eigenvalue GAMMA=   1.8196
  3.8914  2.5299  2.1697  1.3287  0.9932  0.9932  0.8312

 Free energy of the ion-electron system (eV)
  ---------------------------------------------------
  alpha Z        PSCENC =         0.05311416
  Ewald energy   TEWEN  =       968.85946513
  -Hartree energ DENC   =     -2209.19780426
  -exchange      EXHF   =         0.00000000
  -V(xc)+E(xc)   XCENC  =       103.86407662
  PAW double counting   =      2108.33678381    -2114.89007045
  entropy T*S    EENTRO =        -0.00000000
  eigenvalues    EBANDS =      -363.49966399
  atomic energy  EATOM  =      1469.26154948
  Solvation  Ediel_sol  =         0.00000000
  ---------------------------------------------------
  free energy    TOTEN  =       -37.21254950 eV

  energy without entropy =      -37.21254950  energy(sigma->0) =      -37.21254950


--------------------------------------------------------------------------------------------------------




--------------------------------------- Iteration      1(  13)  ---------------------------------------


    POTLOK:  cpu time   13.3602: real time   13.3818
    SETDIJ:  cpu time    0.0484: real time    0.0484
     EDDAV:  cpu time   15.5221: real time   15.5557
       DOS:  cpu time    0.0068: real time    0.0068
    CHARGE:  cpu time    5.4620: real time    5.4698
    MIXING:  cpu time    0.2650: real time    0.2655
    --------------------------------------------
      LOOP:  cpu time   34.6643: real time   34.7280

 eigenvalue-minimisations  :    96
 total energy-change (2. order) :-0.5377920E-02  (-0.1018656E-03)
 number of electron      23.9999999 magnetization 
 augmentation part        2.0340609 magnetization 

 Broyden mixing:
  rms(total) = 0.21869E-02    rms(broyden)= 0.21869E-02
  rms(prec ) = 0.29106E-02
  weight for this iteration     100.00

 eigenvalues of (default mixing * dielectric matrix)
  average eigenvalue GAMMA=   1.9914
  5.3054  2.8881  2.3984  1.5658  1.1104  0.9452  0.9452  0.7725

 Free energy of the ion-electron system (eV)
  ---------------------------------------------------
  alpha Z        PSCENC =         0.05311416
  Ewald energy   TEWEN  =       968.85946513
  -Hartree energ DENC   =     -2209.74153445
  -exchange      EXHF   =         0.00000000
  -V(xc)+E(xc)   XCENC  =       103.86463091
  PAW double counting   =      2107.55383539    -2114.10866502
  entropy T*S    EENTRO =        -0.00000000
  eigenvalues    EBANDS =      -362.96032302
  atomic energy  EATOM  =      1469.26154948
  Solvation  Ediel_sol  =         0.00000000
  ---------------------------------------------------
  free energy    TOTEN  =       -37.21792742 eV

  energy without entropy =      -37.21792742  energy(sigma->0) =      -37.21792742


--------------------------------------------------------------------------------------------------------




--------------------------------------- Iteration      1(  14)  ---------------------------------------


    POTLOK:  cpu time   13.2923: real time   13.3136
    SETDIJ:  cpu time    0.0484: real time    0.0484
     EDDAV:  cpu time   19.4811: real time   19.5202
       DOS:  cpu time    0.0054: real time    0.0054
    CHARGE:  cpu time    5.1593: real time    5.1673
    MIXING:  cpu time    0.2758: real time    0.2764
    --------------------------------------------
      LOOP:  cpu time   38.2624: real time   38.3314

 eigenvalue-minimisations  :   128
 total energy-change (2. order) :-0.2984481E-02  (-0.4446689E-04)
 number of electron      23.9999999 magnetization 
 augmentation part        2.0337888 magnetization 

 Broyden mixing:
  rms(total) = 0.13410E-02    rms(broyden)= 0.13410E-02
  rms(prec ) = 0.17153E-02
  weight for this iteration     100.00

 eigenvalues of (default mixing * dielectric matrix)
  average eigenvalue GAMMA=   1.9938
  5.7161  2.7162  2.5428  1.8000  1.3974  0.9740  0.9740  0.9118  0.9118

 Free energy of the ion-electron system (eV)
  ---------------------------------------------------
  alpha Z        PSCENC =         0.05311416
  Ewald energy   TEWEN  =       968.85946513
  -Hartree energ DENC   =     -2210.02371839
  -exchange      EXHF   =         0.00000000
  -V(xc)+E(xc)   XCENC  =       103.86068152
  PAW double counting   =      2107.74417669    -2114.29827376
  entropy T*S    EENTRO =        -0.00000000
  eigenvalues    EBANDS =      -362.67790673
  atomic energy  EATOM  =      1469.26154948
  Solvation  Ediel_sol  =         0.00000000
  ---------------------------------------------------
  free energy    TOTEN  =       -37.22091190 eV

  energy without entropy =      -37.22091190  energy(sigma->0) =      -37.22091190


--------------------------------------------------------------------------------------------------------




--------------------------------------- Iteration      1(  15)  ---------------------------------------


    POTLOK:  cpu time   13.3229: real time   13.3448
    SETDIJ:  cpu time    0.0485: real time    0.0486
     EDDAV:  cpu time   11.5825: real time   11.6073
       DOS:  cpu time    0.0108: real time    0.0108
    CHARGE:  cpu time    5.1343: real time    5.1416
    MIXING:  cpu time    0.3144: real time    0.3150
    --------------------------------------------
      LOOP:  cpu time   30.4133: real time   30.4680

 eigenvalue-minimisations  :    64
 total energy-change (2. order) :-0.1819791E-02  (-0.9851229E-05)
 number of electron      23.9999999 magnetization 
 augmentation part        2.0337464 magnetization 

 Broyden mixing:
  rms(total) = 0.72187E-03    rms(broyden)= 0.72187E-03
  rms(prec ) = 0.99279E-03
  weight for this iteration     100.00

 eigenvalues of (default mixing * dielectric matrix)
  average eigenvalue GAMMA=   2.1697
  6.9916  3.6486  2.5007  2.2950  1.6034  1.0628  0.9486  0.9486  0.8487  0.8487

 Free energy of the ion-electron system (eV)
  ---------------------------------------------------
  alpha Z        PSCENC =         0.05311416
  Ewald energy   TEWEN  =       968.85946513
  -Hartree energ DENC   =     -2210.10971640
  -exchange      EXHF   =         0.00000000
  -V(xc)+E(xc)   XCENC  =       103.85784509
  PAW double counting   =      2108.44673988    -2114.99969787
  entropy T*S    EENTRO =        -0.00000000
  eigenvalues    EBANDS =      -362.59203116
  atomic energy  EATOM  =      1469.26154948
  Solvation  Ediel_sol  =         0.00000000
  ---------------------------------------------------
  free energy    TOTEN  =       -37.22273170 eV

  energy without entropy =      -37.22273170  energy(sigma->0) =      -37.22273170


--------------------------------------------------------------------------------------------------------




--------------------------------------- Iteration      1(  16)  ---------------------------------------


    POTLOK:  cpu time   13.2695: real time   13.2912
    SETDIJ:  cpu time    0.0484: real time    0.0484
     EDDAV:  cpu time   19.5685: real time   19.6070
       DOS:  cpu time    0.0067: real time    0.0067
    CHARGE:  cpu time    5.2616: real time    5.2689
    MIXING:  cpu time    0.3067: real time    0.3073
    --------------------------------------------
      LOOP:  cpu time   38.4614: real time   38.5295

 eigenvalue-minimisations  :   128
 total energy-change (2. order) :-0.1252158E-02  (-0.1042412E-04)
 number of electron      23.9999999 magnetization 
 augmentation part        2.0337145 magnetization 

 Broyden mixing:
  rms(total) = 0.47426E-03    rms(broyden)= 0.47426E-03
  rms(prec ) = 0.59152E-03
  weight for this iteration     100.00

 eigenvalues of (default mixing * dielectric matrix)
  average eigenvalue GAMMA=   2.2195
  7.3787  3.8782  2.5228  2.5228  1.6726  1.6726  1.0289  0.9791  0.9791  0.8895
  0.8895

 Free energy of the ion-electron system (eV)
  ---------------------------------------------------
  alpha Z        PSCENC =         0.05311416
  Ewald energy   TEWEN  =       968.85946513
  -Hartree energ DENC   =     -2210.20045135
  -exchange      EXHF   =         0.00000000
  -V(xc)+E(xc)   XCENC  =       103.85594035
  PAW double counting   =      2108.30847868    -2114.86146209
  entropy T*S    EENTRO =        -0.00000000
  eigenvalues    EBANDS =      -362.50061822
  atomic energy  EATOM  =      1469.26154948
  Solvation  Ediel_sol  =         0.00000000
  ---------------------------------------------------
  free energy    TOTEN  =       -37.22398385 eV

  energy without entropy =      -37.22398385  energy(sigma->0) =      -37.22398385


--------------------------------------------------------------------------------------------------------




--------------------------------------- Iteration      1(  17)  ---------------------------------------


    POTLOK:  cpu time   13.2833: real time   13.3069
    SETDIJ:  cpu time    0.0486: real time    0.0486
     EDDAV:  cpu time   19.4860: real time   19.5250
       DOS:  cpu time    0.0010: real time    0.0010
    CHARGE:  cpu time    5.1275: real time    5.1347
    MIXING:  cpu time    0.3226: real time    0.3233
    --------------------------------------------
      LOOP:  cpu time   38.2690: real time   38.3394

 eigenvalue-minimisations  :   128
 total energy-change (2. order) :-0.6258014E-03  (-0.2061611E-05)
 number of electron      23.9999999 magnetization 
 augmentation part        2.0337852 magnetization 

 Broyden mixing:
  rms(total) = 0.27309E-03    rms(broyden)= 0.27309E-03
  rms(prec ) = 0.33105E-03
  weight for this iteration     100.00

 eigenvalues of (default mixing * dielectric matrix)
  average eigenvalue GAMMA=   2.3391
  8.2184  4.8916  3.0644  2.4300  2.1897  1.5971  1.0739  0.9663  0.9663  0.8771
  0.8972  0.8972

 Free energy of the ion-electron system (eV)
  ---------------------------------------------------
  alpha Z        PSCENC =         0.05311416
  Ewald energy   TEWEN  =       968.85946513
  -Hartree energ DENC   =     -2210.22198209
  -exchange      EXHF   =         0.00000000
  -V(xc)+E(xc)   XCENC  =       103.85423080
  PAW double counting   =      2107.90811142    -2114.46109522
  entropy T*S    EENTRO =        -0.00000000
  eigenvalues    EBANDS =      -362.47800334
  atomic energy  EATOM  =      1469.26154948
  Solvation  Ediel_sol  =         0.00000000
  ---------------------------------------------------
  free energy    TOTEN  =       -37.22460966 eV

  energy without entropy =      -37.22460966  energy(sigma->0) =      -37.22460966


--------------------------------------------------------------------------------------------------------




--------------------------------------- Iteration      1(  18)  ---------------------------------------


    POTLOK:  cpu time   13.3314: real time   13.3526
    SETDIJ:  cpu time    0.0490: real time    0.0490
     EDDAV:  cpu time   19.4667: real time   19.5057
       DOS:  cpu time    0.0066: real time    0.0066
    CHARGE:  cpu time    5.2533: real time    5.2605
    MIXING:  cpu time    0.3409: real time    0.3415
    --------------------------------------------
      LOOP:  cpu time   38.4479: real time   38.5159

 eigenvalue-minimisations  :   128
 total energy-change (2. order) :-0.2453016E-03  (-0.8258915E-06)
 number of electron      23.9999999 magnetization 
 augmentation part        2.0337375 magnetization 

 Broyden mixing:
  rms(total) = 0.12898E-03    rms(broyden)= 0.12898E-03
  rms(prec ) = 0.16267E-03
  weight for this iteration     100.00

 eigenvalues of (default mixing * dielectric matrix)
  average eigenvalue GAMMA=   2.3606
  8.4662  5.0758  3.0879  2.6537  2.3606  1.6304  1.6304  1.1252  0.9855  0.9855
  0.9128  0.8868  0.8868

 Free energy of the ion-electron system (eV)
  ---------------------------------------------------
  alpha Z        PSCENC =         0.05311416
  Ewald energy   TEWEN  =       968.85946513
  -Hartree energ DENC   =     -2210.25435012
  -exchange      EXHF   =         0.00000000
  -V(xc)+E(xc)   XCENC  =       103.85470389
  PAW double counting   =      2107.95454510    -2114.50776057
  entropy T*S    EENTRO =        -0.00000000
  eigenvalues    EBANDS =      -362.44612202
  atomic energy  EATOM  =      1469.26154948
  Solvation  Ediel_sol  =         0.00000000
  ---------------------------------------------------
  free energy    TOTEN  =       -37.22485496 eV

  energy without entropy =      -37.22485496  energy(sigma->0) =      -37.22485496


--------------------------------------------------------------------------------------------------------




--------------------------------------- Iteration      1(  19)  ---------------------------------------


    POTLOK:  cpu time   13.3426: real time   13.3652
    SETDIJ:  cpu time    0.0484: real time    0.0484
     EDDAV:  cpu time   19.4551: real time   19.4946
       DOS:  cpu time    0.0009: real time    0.0009
    CHARGE:  cpu time    5.1264: real time    5.1336
    MIXING:  cpu time    0.3503: real time    0.3511
    --------------------------------------------
      LOOP:  cpu time   38.3237: real time   38.3937

 eigenvalue-minimisations  :   128
 total energy-change (2. order) :-0.1425095E-03  (-0.1257658E-06)
 number of electron      23.9999999 magnetization 
 augmentation part        2.0337289 magnetization 

 Broyden mixing:
  rms(total) = 0.70611E-04    rms(broyden)= 0.70611E-04
  rms(prec ) = 0.85550E-04
  weight for this iteration     100.00

 eigenvalues of (default mixing * dielectric matrix)
  average eigenvalue GAMMA=   2.4243
  8.8647  5.8081  3.7500  2.8454  2.3979  2.1281  1.5921  1.0866  0.9765  0.9765
  0.8810  0.8810  0.8758  0.8758

 Free energy of the ion-electron system (eV)
  ---------------------------------------------------
  alpha Z        PSCENC =         0.05311416
  Ewald energy   TEWEN  =       968.85946513
  -Hartree energ DENC   =     -2210.26940874
  -exchange      EXHF   =         0.00000000
  -V(xc)+E(xc)   XCENC  =       103.85483157
  PAW double counting   =      2107.98710531    -2114.54031209
  entropy T*S    EENTRO =        -0.00000000
  eigenvalues    EBANDS =      -362.43134229
  atomic energy  EATOM  =      1469.26154948
  Solvation  Ediel_sol  =         0.00000000
  ---------------------------------------------------
  free energy    TOTEN  =       -37.22499747 eV

  energy without entropy =      -37.22499747  energy(sigma->0) =      -37.22499747


--------------------------------------------------------------------------------------------------------




--------------------------------------- Iteration      1(  20)  ---------------------------------------


    POTLOK:  cpu time   13.2527: real time   13.2743
    SETDIJ:  cpu time    0.0484: real time    0.0484
     EDDAV:  cpu time   19.4430: real time   19.4818
       DOS:  cpu time    0.0057: real time    0.0057
    CHARGE:  cpu time    5.2051: real time    5.2122
    MIXING:  cpu time    0.3546: real time    0.3553
    --------------------------------------------
      LOOP:  cpu time   38.3094: real time   38.3777

 eigenvalue-minimisations  :   128
 total energy-change (2. order) :-0.4395319E-04  (-0.4280086E-07)
 number of electron      23.9999999 magnetization 
 augmentation part        2.0337244 magnetization 

 Broyden mixing:
  rms(total) = 0.40800E-04    rms(broyden)= 0.40800E-04
  rms(prec ) = 0.49519E-04
  weight for this iteration     100.00

 eigenvalues of (default mixing * dielectric matrix)
  average eigenvalue GAMMA=   2.4666
  9.1764  6.0321  4.1239  2.8596  2.5259  2.1005  1.9183  1.5935  1.1315  0.9790
  0.9790  0.9093  0.9093  0.8806  0.8806

 Free energy of the ion-electron system (eV)
  ---------------------------------------------------
  alpha Z        PSCENC =         0.05311416
  Ewald energy   TEWEN  =       968.85946513
  -Hartree energ DENC   =     -2210.27502285
  -exchange      EXHF   =         0.00000000
  -V(xc)+E(xc)   XCENC  =       103.85485875
  PAW double counting   =      2108.02342018    -2114.57657127
  entropy T*S    EENTRO =        -0.00000000
  eigenvalues    EBANDS =      -362.42585500
  atomic energy  EATOM  =      1469.26154948
  Solvation  Ediel_sol  =         0.00000000
  ---------------------------------------------------
  free energy    TOTEN  =       -37.22504142 eV

  energy without entropy =      -37.22504142  energy(sigma->0) =      -37.22504142


--------------------------------------------------------------------------------------------------------




--------------------------------------- Iteration      1(  21)  ---------------------------------------


    POTLOK:  cpu time   13.3015: real time   13.3236
    SETDIJ:  cpu time    0.0485: real time    0.0485
     EDDAV:  cpu time   19.4706: real time   19.5101
       DOS:  cpu time    0.0083: real time    0.0083
    CHARGE:  cpu time    5.3237: real time    5.3314
    MIXING:  cpu time    0.3908: real time    0.3916
    --------------------------------------------
      LOOP:  cpu time   38.5434: real time   38.6135

 eigenvalue-minimisations  :   128
 total energy-change (2. order) :-0.2919948E-04  (-0.1641718E-07)
 number of electron      23.9999999 magnetization 
 augmentation part        2.0337284 magnetization 

 Broyden mixing:
  rms(total) = 0.21156E-04    rms(broyden)= 0.21156E-04
  rms(prec ) = 0.25506E-04
  weight for this iteration     100.00

 eigenvalues of (default mixing * dielectric matrix)
  average eigenvalue GAMMA=   2.4791
  9.4052  6.3106  4.5371  3.0992  2.6696  2.3738  2.0923  1.5791  1.0838  0.9856
  0.9856  0.8993  0.9305  0.9305  0.8920  0.8920

 Free energy of the ion-electron system (eV)
  ---------------------------------------------------
  alpha Z        PSCENC =         0.05311416
  Ewald energy   TEWEN  =       968.85946513
  -Hartree energ DENC   =     -2210.27663742
  -exchange      EXHF   =         0.00000000
  -V(xc)+E(xc)   XCENC  =       103.85478227
  PAW double counting   =      2108.02588609    -2114.57902661
  entropy T*S    EENTRO =        -0.00000000
  eigenvalues    EBANDS =      -362.42420373
  atomic energy  EATOM  =      1469.26154948
  Solvation  Ediel_sol  =         0.00000000
  ---------------------------------------------------
  free energy    TOTEN  =       -37.22507062 eV

  energy without entropy =      -37.22507062  energy(sigma->0) =      -37.22507062


--------------------------------------------------------------------------------------------------------




--------------------------------------- Iteration      1(  22)  ---------------------------------------


    POTLOK:  cpu time   13.2244: real time   13.2461
    SETDIJ:  cpu time    0.0485: real time    0.0485
     EDDAV:  cpu time   19.4860: real time   19.5251
       DOS:  cpu time    0.0020: real time    0.0020
    CHARGE:  cpu time    5.1910: real time    5.1981
    MIXING:  cpu time    0.4082: real time    0.4090
    --------------------------------------------
      LOOP:  cpu time   38.3600: real time   38.4287

 eigenvalue-minimisations  :   128
 total energy-change (2. order) :-0.1039832E-04  (-0.7798219E-08)
 number of electron      23.9999999 magnetization 
 augmentation part        2.0337285 magnetization 

 Broyden mixing:
  rms(total) = 0.11435E-04    rms(broyden)= 0.11435E-04
  rms(prec ) = 0.14093E-04
  weight for this iteration     100.00

 eigenvalues of (default mixing * dielectric matrix)
  average eigenvalue GAMMA=   2.5366
  9.5482  6.6623  4.8785  3.5535  2.7387  2.5015  2.0143  2.0143  1.5633  1.1263
  0.9870  0.9870  0.9612  0.9612  0.8772  0.8772  0.8701

 Free energy of the ion-electron system (eV)
  ---------------------------------------------------
  alpha Z        PSCENC =         0.05311416
  Ewald energy   TEWEN  =       968.85946513
  -Hartree energ DENC   =     -2210.27720651
  -exchange      EXHF   =         0.00000000
  -V(xc)+E(xc)   XCENC  =       103.85476637
  PAW double counting   =      2108.01396574    -2114.56711583
  entropy T*S    EENTRO =        -0.00000000
  eigenvalues    EBANDS =      -362.42361956
  atomic energy  EATOM  =      1469.26154948
  Solvation  Ediel_sol  =         0.00000000
  ---------------------------------------------------
  free energy    TOTEN  =       -37.22508102 eV

  energy without entropy =      -37.22508102  energy(sigma->0) =      -37.22508102


--------------------------------------------------------------------------------------------------------




--------------------------------------- Iteration      1(  23)  ---------------------------------------


    POTLOK:  cpu time   13.3724: real time   13.3940
    SETDIJ:  cpu time    0.0484: real time    0.0484
     EDDAV:  cpu time   19.4554: real time   19.4957
       DOS:  cpu time    0.0097: real time    0.0097
    CHARGE:  cpu time    5.1467: real time    5.1568
    MIXING:  cpu time    0.4679: real time    0.4687
    --------------------------------------------
      LOOP:  cpu time   38.5005: real time   38.5733

 eigenvalue-minimisations  :   128
 total energy-change (2. order) :-0.6626483E-05  (-0.6137743E-08)
 number of electron      23.9999999 magnetization 
 augmentation part        2.0337285 magnetization 

 Broyden mixing:
  rms(total) = 0.55673E-05    rms(broyden)= 0.55673E-05
  rms(prec ) = 0.68517E-05
  weight for this iteration     100.00

 eigenvalues of (default mixing * dielectric matrix)
  average eigenvalue GAMMA=   2.5300
  9.5431  7.0367  5.0832  3.8113  2.7859  2.5308  2.4001  2.0372  1.5802  0.8806
  0.8806  0.8772  1.0575  1.0575  1.0042  1.0042  0.9849  0.9849

 Free energy of the ion-electron system (eV)
  ---------------------------------------------------
  alpha Z        PSCENC =         0.05311416
  Ewald energy   TEWEN  =       968.85946513
  -Hartree energ DENC   =     -2210.27722763
  -exchange      EXHF   =         0.00000000
  -V(xc)+E(xc)   XCENC  =       103.85475148
  PAW double counting   =      2108.00999796    -2114.56314996
  entropy T*S    EENTRO =        -0.00000000
  eigenvalues    EBANDS =      -362.42358828
  atomic energy  EATOM  =      1469.26154948
  Solvation  Ediel_sol  =         0.00000000
  ---------------------------------------------------
  free energy    TOTEN  =       -37.22508764 eV

  energy without entropy =      -37.22508764  energy(sigma->0) =      -37.22508764


--------------------------------------------------------------------------------------------------------




--------------------------------------- Iteration      1(  24)  ---------------------------------------


    POTLOK:  cpu time   13.2572: real time   13.2785
    SETDIJ:  cpu time    0.0484: real time    0.0484
     EDDAV:  cpu time   19.4261: real time   19.4655
       DOS:  cpu time    0.0168: real time    0.0168
    CHARGE:  cpu time    5.1819: real time    5.1891
    MIXING:  cpu time    0.4249: real time    0.4257
    --------------------------------------------
      LOOP:  cpu time   38.3553: real time   38.4240

 eigenvalue-minimisations  :   128
 total energy-change (2. order) :-0.1860001E-05  (-0.4025614E-08)
 number of electron      23.9999999 magnetization 
 augmentation part        2.0337279 magnetization 

 Broyden mixing:
  rms(total) = 0.34548E-05    rms(broyden)= 0.34548E-05
  rms(prec ) = 0.42402E-05
  weight for this iteration     100.00

 eigenvalues of (default mixing * dielectric matrix)
  average eigenvalue GAMMA=   2.6134
  9.6721  7.3146  5.5678  4.2397  3.3355  2.7240  2.4345  2.1785  1.9722  1.5720
  1.1038  1.0285  0.9837  0.9837  0.8838  0.8838  0.8868  0.9451  0.9451

 Free energy of the ion-electron system (eV)
  ---------------------------------------------------
  alpha Z        PSCENC =         0.05311416
  Ewald energy   TEWEN  =       968.85946513
  -Hartree energ DENC   =     -2210.27746343
  -exchange      EXHF   =         0.00000000
  -V(xc)+E(xc)   XCENC  =       103.85475998
  PAW double counting   =      2108.01276631    -2114.56592122
  entropy T*S    EENTRO =        -0.00000000
  eigenvalues    EBANDS =      -362.42335991
  atomic energy  EATOM  =      1469.26154948
  Solvation  Ediel_sol  =         0.00000000
  ---------------------------------------------------
  free energy    TOTEN  =       -37.22508950 eV

  energy without entropy =      -37.22508950  energy(sigma->0) =      -37.22508950


--------------------------------------------------------------------------------------------------------




--------------------------------------- Iteration      1(  25)  ---------------------------------------


    POTLOK:  cpu time   13.2774: real time   13.2991
    SETDIJ:  cpu time    0.0485: real time    0.0485
     EDDAV:  cpu time   19.5020: real time   19.5422
       DOS:  cpu time    0.0010: real time    0.0010
    CHARGE:  cpu time    5.4240: real time    5.4313
    MIXING:  cpu time    0.4683: real time    0.4692
    --------------------------------------------
      LOOP:  cpu time   38.7212: real time   38.7913

 eigenvalue-minimisations  :   128
 total energy-change (2. order) :-0.1447903E-05  (-0.2688344E-08)
 number of electron      23.9999999 magnetization 
 augmentation part        2.0337279 magnetization 

 Broyden mixing:
  rms(total) = 0.14471E-05    rms(broyden)= 0.14471E-05
  rms(prec ) = 0.17570E-05
  weight for this iteration     100.00

 eigenvalues of (default mixing * dielectric matrix)
  average eigenvalue GAMMA=   2.5482
  9.6732  7.4540  5.6729  4.3388  3.3005  2.6708  2.4543  2.2550  2.0092  1.5745
  1.1092  1.0119  1.0119  0.9686  0.9686  0.8818  0.8818  0.9283  0.9283  0.8706

 Free energy of the ion-electron system (eV)
  ---------------------------------------------------
  alpha Z        PSCENC =         0.05311416
  Ewald energy   TEWEN  =       968.85946513
  -Hartree energ DENC   =     -2210.27746096
  -exchange      EXHF   =         0.00000000
  -V(xc)+E(xc)   XCENC  =       103.85475531
  PAW double counting   =      2108.01368484    -2114.56683852
  entropy T*S    EENTRO =        -0.00000000
  eigenvalues    EBANDS =      -362.42336040
  atomic energy  EATOM  =      1469.26154948
  Solvation  Ediel_sol  =         0.00000000
  ---------------------------------------------------
  free energy    TOTEN  =       -37.22509095 eV

  energy without entropy =      -37.22509095  energy(sigma->0) =      -37.22509095


--------------------------------------------------------------------------------------------------------




--------------------------------------- Iteration      1(  26)  ---------------------------------------


    POTLOK:  cpu time   13.2422: real time   13.2642
    SETDIJ:  cpu time    0.0484: real time    0.0484
     EDDAV:  cpu time   19.4819: real time   19.5208
       DOS:  cpu time    0.0056: real time    0.0056
    CHARGE:  cpu time    5.4531: real time    5.4615
    MIXING:  cpu time    0.4760: real time    0.4769
    --------------------------------------------
      LOOP:  cpu time   38.7071: real time   38.7775

 eigenvalue-minimisations  :   128
 total energy-change (2. order) :-0.1665312E-06  (-0.2060686E-08)
 number of electron      23.9999999 magnetization 
 augmentation part        2.0337281 magnetization 

 Broyden mixing:
  rms(total) = 0.94474E-06    rms(broyden)= 0.94474E-06
  rms(prec ) = 0.12252E-05
  weight for this iteration     100.00

 eigenvalues of (default mixing * dielectric matrix)
  average eigenvalue GAMMA=   2.6410
  9.7293  7.7889  6.1074  4.7768  3.7392  2.9343  2.5744  2.3855  2.2127  1.9456
  1.5727  1.0897  1.0897  0.9818  0.9818  0.8829  0.8829  1.0168  0.8832  0.9429
  0.9429

 Free energy of the ion-electron system (eV)
  ---------------------------------------------------
  alpha Z        PSCENC =         0.05311416
  Ewald energy   TEWEN  =       968.85946513
  -Hartree energ DENC   =     -2210.27743267
  -exchange      EXHF   =         0.00000000
  -V(xc)+E(xc)   XCENC  =       103.85475320
  PAW double counting   =      2108.01359665    -2114.56674960
  entropy T*S    EENTRO =        -0.00000000
  eigenvalues    EBANDS =      -362.42338748
  atomic energy  EATOM  =      1469.26154948
  Solvation  Ediel_sol  =         0.00000000
  ---------------------------------------------------
  free energy    TOTEN  =       -37.22509112 eV

  energy without entropy =      -37.22509112  energy(sigma->0) =      -37.22509112


--------------------------------------------------------------------------------------------------------




--------------------------------------- Iteration      1(  27)  ---------------------------------------


    POTLOK:  cpu time   13.2772: real time   13.2986
    SETDIJ:  cpu time    0.0483: real time    0.0483
     EDDAV:  cpu time   19.4676: real time   19.5069
       DOS:  cpu time    0.0149: real time    0.0149
    CHARGE:  cpu time    5.0879: real time    5.0950
    MIXING:  cpu time    0.5853: real time    0.5863
    --------------------------------------------
      LOOP:  cpu time   38.4813: real time   38.5501

 eigenvalue-minimisations  :   128
 total energy-change (2. order) :-0.3512141E-06  (-0.1234605E-08)
 number of electron      23.9999999 magnetization 
 augmentation part        2.0337281 magnetization 

 Broyden mixing:
  rms(total) = 0.46350E-06    rms(broyden)= 0.46350E-06
  rms(prec ) = 0.55206E-06
  weight for this iteration     100.00

 eigenvalues of (default mixing * dielectric matrix)
  average eigenvalue GAMMA=   2.6071
  9.7285  7.9259  6.1889  4.9019  3.8271  3.0520  2.6662  2.4236  2.1907  1.9941
  1.5752  1.1359  1.1359  1.1124  0.9847  0.9847  0.8821  0.8821  0.9920  0.9430
  0.9430  0.8868

 Free energy of the ion-electron system (eV)
  ---------------------------------------------------
  alpha Z        PSCENC =         0.05311416
  Ewald energy   TEWEN  =       968.85946513
  -Hartree energ DENC   =     -2210.27743587
  -exchange      EXHF   =         0.00000000
  -V(xc)+E(xc)   XCENC  =       103.85475237
  PAW double counting   =      2108.01334915    -2114.56650176
  entropy T*S    EENTRO =        -0.00000000
  eigenvalues    EBANDS =      -362.42338412
  atomic energy  EATOM  =      1469.26154948
  Solvation  Ediel_sol  =         0.00000000
  ---------------------------------------------------
  free energy    TOTEN  =       -37.22509147 eV

  energy without entropy =      -37.22509147  energy(sigma->0) =      -37.22509147


--------------------------------------------------------------------------------------------------------




--------------------------------------- Iteration      1(  28)  ---------------------------------------


    POTLOK:  cpu time   13.2309: real time   13.2528
    SETDIJ:  cpu time    0.0484: real time    0.0484
     EDDAV:  cpu time   19.4570: real time   19.4961
       DOS:  cpu time    0.0046: real time    0.0046
    --------------------------------------------
      LOOP:  cpu time   32.7408: real time   32.8019

 eigenvalue-minimisations  :   128
 total energy-change (2. order) :-0.5563697E-07  (-0.1032053E-08)
 number of electron      23.9999999 magnetization 
 augmentation part        2.0337281 magnetization 

 Free energy of the ion-electron system (eV)
  ---------------------------------------------------
  alpha Z        PSCENC =         0.05311416
  Ewald energy   TEWEN  =       968.85946513
  -Hartree energ DENC   =     -2210.27744503
  -exchange      EXHF   =         0.00000000
  -V(xc)+E(xc)   XCENC  =       103.85475294
  PAW double counting   =      2108.01327803    -2114.56643087
  entropy T*S    EENTRO =        -0.00000000
  eigenvalues    EBANDS =      -362.42337537
  atomic energy  EATOM  =      1469.26154948
  Solvation  Ediel_sol  =         0.00000000
  ---------------------------------------------------
  free energy    TOTEN  =       -37.22509152 eV

  energy without entropy =      -37.22509152  energy(sigma->0) =      -37.22509152


--------------------------------------------------------------------------------------------------------




 average (electrostatic) potential at core
  the test charge radii are     0.5201  0.6991  0.7215
  (the norm of the test charge is              1.0000)
       1 -44.7481       2 -44.7482       3 -63.5425       4 -82.5477       5 -82.5713
       6 -80.5344
 
 
 
 E-fermi :  -7.0832     XC(G=0):  -0.0375     alpha+bet : -0.0089


 k-point     1 :       0.0000    0.0000    0.0000
  band No.  band energies     occupation 
      1     -29.0958      2.00000
      2     -28.0874      2.00000
      3     -25.3700      2.00000
      4     -13.6170      2.00000
      5     -13.1221      2.00000
      6     -12.5635      2.00000
      7     -12.5631      2.00000
      8     -12.4607      2.00000
      9      -9.2516      2.00000
     10      -8.9450      2.00000
     11      -8.9446      2.00000
     12      -7.1909      2.00000
     13      -0.9791      0.00000
     14      -0.8270      0.00000
     15      -0.3761      0.00000
     16      -0.3756      0.00000
     17       0.0046      0.00000
     18       0.1048      0.00000
     19       0.1139      0.00000
     20       0.1163      0.00000
     21       0.1203      0.00000
     22       0.1269      0.00000
     23       0.1510      0.00000
     24       0.2005      0.00000
     25       0.2255      0.00000
     26       0.2363      0.00000
     27       0.2367      0.00000
     28       0.2376      0.00000
     29       0.2422      0.00000
     30       0.2431      0.00000
     31       0.2432      0.00000
     32       0.2445      0.00000


--------------------------------------------------------------------------------------------------------


 soft charge-density along one line, spin component            1
         0         1         2         3         4         5         6         7         8         9
 total charge-density along one line
 
 pseudopotential strength for first ion, spin component:            1
 -2.380  -4.110   0.009  -0.014   0.000
 -4.110  -7.012   0.018  -0.028   0.001
  0.009   0.018  -0.314  -0.014   0.001
 -0.014  -0.028  -0.014  -0.301  -0.001
  0.000   0.001   0.001  -0.001  -0.324
 total augmentation occupancy for first ion, spin component:            1
  3.788  -0.791  -0.424   0.620  -0.023
 -0.791   0.220   0.089  -0.121   0.005
 -0.424   0.089   0.069  -0.057   0.002
  0.620  -0.121  -0.057   0.109  -0.003
 -0.023   0.005   0.002  -0.003   0.044


------------------------ aborting loop because EDIFF is reached ----------------------------------------



 DIPCOR: dipole corrections for dipol
 direction  1 min pos   457, direction  2 min pos   465, direction  3 min pos   411,
 dipolmoment          -0.013858     -0.390946      0.017632 electrons x Angstroem
 Tr[quadrupol]         9.205750

 energy correction for charged system         0.000000 eV
 dipol+quadrupol energy correction            0.000108 eV
 added-field ion interaction          0.000000 eV  (added to PSCEN)

 
  *************** adding dipol energy to TOTEN NOW **************** 
    CHARGE:  cpu time    5.2109: real time    5.2182
    FORLOC:  cpu time    0.5976: real time    0.5984
    FORNL :  cpu time    0.4569: real time    0.4577
    STRESS:  cpu time   14.2446: real time   14.2718
    FORCOR:  cpu time   11.4916: real time   11.5095
    FORHAR:  cpu time    3.3780: real time    3.3841
    MIXING:  cpu time    0.5179: real time    0.5189
    OFIELD:  cpu time    0.0000: real time    0.0000

  Hirshfeld charges:
            ion         q(e)     
   ------------------------------
      1     H           0.147
      2     H           0.147
      3     C           0.292
      4     O          -0.142
      5     O          -0.150
      6     O          -0.293

  Hirshfeld-I charges:
            ion         q(e)        dq(e)    
   ------------------------------------------
      1     H           0.453      0.249E-04
      2     H           0.453      0.250E-04
      3     C           0.838     -0.207E-04
      4     O          -0.414      0.104E-04
      5     O          -0.424      0.103E-04
      6     O          -0.906     -0.500E-04

   Hirshfeld-I converged in  17 cycles. Convergence criterion |dq|< 0.500E-04 e

  Atomic reference data used in the T-S method for vdW correction:
            C6at              R0at           ALPHAat      REFSTATE
            (au)              (au)            (au)                
   ---------------------------------------------------------------
   H           6.500          3.099          4.500         0
   C          46.600          3.590         12.000         0
   O          15.600          3.194          5.400         0

  Tkatchenko/Scheffler method for vdW energy calculation
  ---------------------------------------------------------------------------------------------

  Parameters of vdW forcefield:
            C6ts              R0ts           ALPHAts        RELVOL
            (au)              (au)            (au)                
   ---------------------------------------------------------------
   H           0.592          2.079          1.358          0.30170489
   H           0.592          2.079          1.358          0.30171954
   C           9.159          2.738          5.320          0.44333802
   O          18.394          3.283          5.864          1.08587090
   O          18.583          3.288          5.894          1.09141304
   O          25.752          3.472          6.938          1.28482994

  vdW correction parametrized for the method pbe       

  IVDW =  21
  VDW_RADIUS =    50.000 A
  VDW_IDAMPF =  0
  VDW_S6 =     1.000
  VDW_SR =     0.950
  VDW_D =    20.000
  LVDW_ONECELL = F F F
  LVDW_SAMETYPE T T T
  LVDW_EWALD = F

  Number of pair interactions contributing to vdW energy:     319
  Edisp (eV):   -0.00159
    FORVDW:  cpu time  105.7544: real time  105.8162

  FORCE on cell =-STRESS in cart. coord.  units (eV):
  Direction    XX          YY          ZZ          XY          YZ          ZX
  --------------------------------------------------------------------------------------
  Alpha Z     0.05311     0.05311     0.05311
  Ewald    -113.73880  1074.29919     8.29923     2.64656     2.19555    -1.41047
  Hartree   495.45588  1197.99190   516.82966     0.58900     0.20430    -0.24759
  E(xc)    -111.68254  -109.27735  -111.19272     0.01069     0.00920    -0.00570
  Local    -724.61266 -2520.99769  -831.73983    -2.48112    -1.66896     1.23725
  n-local   -79.54170   -85.92713   -78.96697    -0.00980     0.03944    -0.00565
  augment    21.46598    17.27431    19.06457    -0.05134    -0.04661     0.02791
  Kinetic   512.58563   428.40391   478.33343    -0.69257    -0.71458     0.39631
  Fock        0.00000     0.00000     0.00000     0.00000     0.00000     0.00000
  vdW        -0.00000    -0.00576     0.00100    -0.00000     0.00006    -0.00001
  -------------------------------------------------------------------------------------
  Total      -0.01509     1.81449     0.68147     0.01141     0.01841    -0.00794
  in kB      -0.00056     0.06781     0.02547     0.00043     0.00069    -0.00030
  external pressure =        0.03 kB  Pullay stress =        0.00 kB


 VOLUME and BASIS-vectors are now :
 -----------------------------------------------------------------------------
  energy-cutoff  :     1000.00
  volume of cell :    42875.00
      direct lattice vectors                 reciprocal lattice vectors
    35.000000000  0.000000000  0.000000000     0.028571429  0.000000000  0.000000000
     0.000000000 35.000000000  0.000000000     0.000000000  0.028571429  0.000000000
     0.000000000  0.000000000 35.000000000     0.000000000  0.000000000  0.028571429

  length of vectors
    35.000000000 35.000000000 35.000000000     0.028571429  0.028571429  0.028571429


 FORCES acting on ions
    electron-ion (+dipol)            ewald-force                    non-local-force                 convergence-correction
 -----------------------------------------------------------------------------------------------
   -.270E+01 -.538E+02 0.755E+02   0.298E+01 0.587E+02 -.832E+02   -.260E+00 -.474E+01 0.721E+01   0.127E-07 0.265E-06 -.698E-07
   -.115E+01 -.605E+02 -.706E+02   0.127E+01 0.662E+02 0.778E+02   -.113E+00 -.541E+01 -.674E+01   0.126E-07 0.252E-06 0.382E-07
   0.763E-02 0.114E+02 -.137E-01   -.777E-02 -.112E+02 0.139E-01   -.376E-04 -.323E-01 0.195E-03   -.247E-07 -.502E-06 -.608E-07
   0.187E-01 -.256E+03 -.323E-01   -.207E-01 0.321E+03 0.387E-01   0.217E-02 -.646E+02 -.688E-02   0.164E-07 0.193E-05 -.150E-06
   0.657E-02 0.294E+03 -.110E-01   -.716E-02 -.359E+03 0.123E-01   0.631E-03 0.642E+02 -.137E-02   -.155E-06 0.421E-05 -.148E-06
   0.237E+01 0.260E+02 -.304E+01   -.422E+01 -.762E+02 0.540E+01   0.182E+01 0.497E+02 -.234E+01   0.215E-06 0.566E-05 -.302E-09
 -----------------------------------------------------------------------------------------------
   -.145E+01 -.391E+02 0.187E+01   0.000E+00 0.000E+00 -.355E-14   0.145E+01 0.391E+02 -.187E+01   0.766E-07 0.118E-04 -.390E-06
 
 
 POSITION                                       TOTAL-FORCE (eV/Angst)
 -----------------------------------------------------------------------------------
      0.02970      6.81265     34.21499         0.014935      0.249182     -0.472560
      0.01365      6.88454      0.72944         0.005153      0.293453      0.446821
      0.00000      0.08826      0.00000        -0.000175      0.090386      0.000399
      0.00000      1.25848      0.00000         0.000187      0.590202     -0.000550
      0.00000     33.91804      0.00000         0.000040     -0.683554     -0.000051
      0.00000      6.25848      0.00000        -0.020141     -0.539668      0.025940
 -----------------------------------------------------------------------------------
    total drift:                               -0.000015      0.000325      0.000034


--------------------------------------------------------------------------------------------------------



  FREE ENERGIE OF THE ION-ELECTRON SYSTEM (eV)
  ---------------------------------------------------
  free  energy   TOTEN  =       -37.22657849 eV

  energy  without entropy=      -37.22657849  energy(sigma->0) =      -37.22657849
 


--------------------------------------------------------------------------------------------------------


    POTLOK:  cpu time   14.0578: real time   14.0803


--------------------------------------------------------------------------------------------------------


 writing wavefunctions
     LOOP+:  cpu time 1460.2720: real time 1462.3322
    4ORBIT:  cpu time    0.0000: real time    0.0000

 total amount of memory used by VASP MPI-rank0  4216433. kBytes
=======================================================================

   base      :      30000. kBytes
   nonl-proj :     443298. kBytes
   fftplans  :     676185. kBytes
   grid      :    3042313. kBytes
   one-center:          9. kBytes
   wavefun   :      24628. kBytes
 
  
  
 General timing and accounting informations for this job:
 ========================================================
  
                  Total CPU time used (sec):     2870.820
                            User time (sec):     2741.855
                          System time (sec):      128.965
                         Elapsed time (sec):     2876.735
  
                   Maximum memory used (kb):     5602824.
                   Average memory used (kb):           0.
  
                          Minor page faults:     76385167
                          Major page faults:          914
                 Voluntary context switches:        13778
