 vasp.6.1.2 22Jul20 (build Jan  6 2021 09:55:43) gamma-only                      
 executed on             LinuxPGI date 2021.04.13  17:09:52
 running on   16 total cores
 distrk:  each k-point on   16 cores,    1 groups
 distr:  one band on NCORE=   8 cores,    2 groups


--------------------------------------------------------------------------------------------------------


 INCAR:
 POTCAR:    PAW_PBE C_h 06Feb2004                 
 POTCAR:    PAW_PBE O_h 06Feb2004                 
 POTCAR:    PAW_PBE C_h 06Feb2004                 
   VRHFIN =C: s2p2                                                                                  
   LEXCH  = PE                                                                                      
   EATOM  =   147.1560 eV,   10.8157 Ry                                                             
                                                                                                    
   TITEL  = PAW_PBE C_h 06Feb2004                                                                   
   LULTRA =        F    use ultrasoft PP ?                                                          
   IUNSCR =        1    unscreen: 0-lin 1-nonlin 2-no                                               
   RPACOR =    0.800    partial core radius                                                         
   POMASS =   12.011; ZVAL   =    4.000    mass and valenz                                          
   RCORE  =    1.100    outmost cutoff radius                                                       
   RWIGS  =    1.630; RWIGS  =    0.863    wigner-seitz radius (au A)                               
   ENMAX  =  700.000; ENMIN  =  500.000 eV                                                          
   ICORE  =        2    local potential                                                             
   LCOR   =        T    correct aug charges                                                         
   LPAW   =        T    paw PP                                                                      
   EAUG   =  946.768                                                                                
   DEXC   =    0.000                                                                                
   RMAX   =    1.128    core radius for proj-oper                                                   
   RAUG   =    1.300    factor for augmentation sphere                                              
   RDEP   =    1.162    radius for radial grids                                                     
   RDEPT  =    1.088    core radius for aug-charge                                                  
                                                                                                    
   Atomic configuration                                                                             
    4 entries                                                                                       
     n  l   j            E        occ.                                                              
     1  0  0.50      -273.3789   2.0000                                                             
     2  0  0.50       -13.7508   2.0000                                                             
     2  1  0.50        -5.2854   2.0000                                                             
     3  2  1.50        -5.4423   0.0000                                                             
   Description                                                                                      
     l       E           TYP  RCUT    TYP  RCUT                                                     
     0    -13.7508458     23  1.100                                                                 
     0     -8.2022199     23  1.100                                                                 
     1     -5.2854383     23  1.100                                                                 
     1      1.1560700     23  1.100                                                                 
     2     -5.4423304      7  1.100                                                                 
  local pseudopotential read in
  partial core-charges read in
  partial kinetic energy density read in
  atomic valenz-charges read in
  non local Contribution for L=            0  read in
    real space projection operators read in
  non local Contribution for L=            0  read in
    real space projection operators read in
  non local Contribution for L=            1  read in
    real space projection operators read in
  non local Contribution for L=            1  read in
    real space projection operators read in
    PAW grid and wavefunctions read in
 
   number of l-projection  operators is LMAX  =            4
   number of lm-projection operators is LMMAX =            8
 
 POTCAR:    PAW_PBE O_h 06Feb2004                 
   VRHFIN =O: s2p4                                                                                  
   LEXCH  = PE                                                                                      
   EATOM  =   432.3788 eV,   31.7789 Ry                                                             
                                                                                                    
   TITEL  = PAW_PBE O_h 06Feb2004                                                                   
   LULTRA =        F    use ultrasoft PP ?                                                          
   IUNSCR =        1    unscreen: 0-lin 1-nonlin 2-no                                               
   RPACOR =    0.800    partial core radius                                                         
   POMASS =   16.000; ZVAL   =    6.000    mass and valenz                                          
   RCORE  =    1.100    outmost cutoff radius                                                       
   RWIGS  =    1.400; RWIGS  =    0.741    wigner-seitz radius (au A)                               
   ENMAX  =  700.000; ENMIN  =  500.000 eV                                                          
   ICORE  =        2    local potential                                                             
   LCOR   =        T    correct aug charges                                                         
   LPAW   =        T    paw PP                                                                      
   EAUG   =  888.804                                                                                
   DEXC   =    0.000                                                                                
   RMAX   =    1.128    core radius for proj-oper                                                   
   RAUG   =    1.300    factor for augmentation sphere                                              
   RDEP   =    1.125    radius for radial grids                                                     
   RDEPT  =    1.088    core radius for aug-charge                                                  
                                                                                                    
   Atomic configuration                                                                             
    4 entries                                                                                       
     n  l   j            E        occ.                                                              
     1  0  0.50      -514.6923   2.0000                                                             
     2  0  0.50       -23.9615   2.0000                                                             
     2  1  0.50        -9.0305   4.0000                                                             
     3  2  1.50        -9.5241   0.0000                                                             
   Description                                                                                      
     l       E           TYP  RCUT    TYP  RCUT                                                     
     0    -23.9615319     23  1.100                                                                 
     0    -25.3221145     23  1.100                                                                 
     1     -9.0304911     23  1.100                                                                 
     1     -5.4802209     23  1.100                                                                 
     2     -9.5240782      7  1.100                                                                 
  local pseudopotential read in
  partial core-charges read in
  partial kinetic energy density read in
  atomic valenz-charges read in
  non local Contribution for L=            0  read in
    real space projection operators read in
  non local Contribution for L=            0  read in
    real space projection operators read in
  non local Contribution for L=            1  read in
    real space projection operators read in
  non local Contribution for L=            1  read in
    real space projection operators read in
    PAW grid and wavefunctions read in
 
   number of l-projection  operators is LMAX  =            4
   number of lm-projection operators is LMMAX =            8
 
  PAW_PBE C_h 06Feb2004                 :
 energy of atom  1       EATOM= -147.1560
 kinetic energy error for atom=    0.0004 (will be added to EATOM!!)
  PAW_PBE O_h 06Feb2004                 :
 energy of atom  2       EATOM= -432.3788
 kinetic energy error for atom=    0.0016 (will be added to EATOM!!)
 
 
 POSCAR:  C  O
  positions in cartesian coordinates
  No initial velocities read in
 exchange correlation table for  LEXCH =        8
   RHO(1)=    0.500       N(1)  =     2000
   RHO(2)=  100.500       N(2)  =     4000
 


--------------------------------------------------------------------------------------------------------


 ion  position               nearest neighbor table
   1  0.000  0.002  0.000-   3 1.17   4 1.17
   2  0.000  0.203  0.000-   5 1.17   6 1.17
   3  0.000  0.035  0.000-   1 1.17
   4  0.000  0.968  0.000-   1 1.17
   5  0.000  0.169  0.000-   2 1.17
   6  0.000  0.236  0.000-   2 1.17
 
  LATTYP: Found a simple cubic cell.
 ALAT       =    35.0000000000
  
  Lattice vectors:
  
 A1 = (  35.0000000000,   0.0000000000,   0.0000000000)
 A2 = (   0.0000000000,  35.0000000000,   0.0000000000)
 A3 = (   0.0000000000,   0.0000000000,  35.0000000000)


Analysis of symmetry for initial positions (statically):
=====================================================================
 Subroutine PRICEL returns:
 Original cell was already a primitive cell.
 

 Routine SETGRP: Setting up the symmetry group for a 
 simple cubic supercell.


 Subroutine GETGRP returns: Found 16 space group operations
 (whereof  8 operations were pure point group operations)
 out of a pool of 48 trial point group operations.


The static configuration has the point symmetry C_4v.
 The point group associated with its full space group is D_4h.


Analysis of symmetry for dynamics (positions and initial velocities):
=====================================================================
 Subroutine PRICEL returns:
 Original cell was already a primitive cell.
 

 Routine SETGRP: Setting up the symmetry group for a 
 simple cubic supercell.


 Subroutine GETGRP returns: Found 16 space group operations
 (whereof  8 operations were pure point group operations)
 out of a pool of 48 trial point group operations.


The dynamic configuration has the point symmetry C_4v.
 The point group associated with its full space group is D_4h.


 Subroutine INISYM returns: Found 16 space group operations
 (whereof  8 operations are pure point group operations),
 and found     1 'primitive' translations


----------------------------------------------------------------------------------------

                                     Primitive cell                                     

  volume of cell :   42875.0000

  direct lattice vectors                    reciprocal lattice vectors
    35.000000000  0.000000000  0.000000000     0.028571429  0.000000000  0.000000000
     0.000000000 35.000000000  0.000000000     0.000000000  0.028571429  0.000000000
     0.000000000  0.000000000 35.000000000     0.000000000  0.000000000  0.028571429

  length of vectors
    35.000000000 35.000000000 35.000000000     0.028571429  0.028571429  0.028571429

  position of ions in fractional coordinates (direct lattice)
     0.000000000  0.001628171  0.000000000
     0.000000000  0.202783600  0.000000000
     0.000000000  0.035063029  0.000000000
     0.000000000  0.968193314  0.000000000
     0.000000000  0.169348743  0.000000000
     0.000000000  0.236218457  0.000000000

  ion indices of the primitive-cell ions
   primitive index   ion index
                 1           1
                 2           2
                 3           3
                 4           4
                 5           5
                 6           6

----------------------------------------------------------------------------------------

 
 
 KPOINTS: automatic mesh                          

Automatic generation of k-mesh.
Space group operators:
 irot       det(A)        alpha          n_x          n_y          n_z        tau_x        tau_y        tau_z
    1     1.000000     0.000000     1.000000     0.000000     0.000000     0.000000     0.000000     0.000000
    2     1.000000    90.000000     0.000000     1.000000     0.000000     0.000000     0.000000     0.000000
    3    -1.000000   180.000000     0.000000     0.000000     1.000000     0.000000     0.000000     0.000000
    4    -1.000000   180.000000     0.707107     0.000000     0.707107     0.000000     0.000000     0.000000
    5    -1.000000   180.000000     1.000000     0.000000     0.000000     0.000000     0.000000     0.000000
    6     1.000000    90.000000     0.000000    -1.000000     0.000000     0.000000     0.000000     0.000000
    7     1.000000   180.000000     0.000000     1.000000     0.000000     0.000000     0.000000     0.000000
    8    -1.000000   180.000000     0.707107     0.000000    -0.707107     0.000000     0.000000     0.000000
    9    -1.000000     0.000000     1.000000     0.000000     0.000000     0.000000     0.204412     0.000000
   10    -1.000000    90.000000     0.000000     1.000000     0.000000     0.000000     0.204412     0.000000
   11     1.000000   180.000000     0.000000     0.000000     1.000000     0.000000     0.204412     0.000000
   12     1.000000   180.000000     0.707107     0.000000     0.707107     0.000000     0.204412     0.000000
   13     1.000000   180.000000     1.000000     0.000000     0.000000     0.000000     0.204412     0.000000
   14    -1.000000    90.000000     0.000000    -1.000000     0.000000     0.000000     0.204412     0.000000
   15    -1.000000   180.000000     0.000000     1.000000     0.000000     0.000000     0.204412     0.000000
   16     1.000000   180.000000     0.707107     0.000000    -0.707107     0.000000     0.204412     0.000000
 
 Subroutine IBZKPT returns following result:
 ===========================================
 
 Found      1 irreducible k-points:
 
 Following reciprocal coordinates:
            Coordinates               Weight
  0.000000  0.000000  0.000000      1.000000
 
 Following cartesian coordinates:
            Coordinates               Weight
  0.000000  0.000000  0.000000      1.000000
 


--------------------------------------------------------------------------------------------------------




 Dimension of arrays:
   k-points           NKPTS =      1   k-points in BZ     NKDIM =      1   number of bands    NBANDS=     20
   number of dos      NEDOS =    301   number of ions     NIONS =      6
   non local maximal  LDIM  =      4   non local SUM 2l+1 LMDIM =      8
   total plane-waves  NPLWV = ******
   max r-space proj   IRMAX =      1   max aug-charges    IRDMAX=  23028
   dimension x,y,z NGX =   512 NGY =  512 NGZ =  512
   dimension x,y,z NGXF=  1024 NGYF= 1024 NGZF= 1024
   support grid    NGXF=  1024 NGYF= 1024 NGZF= 1024
   ions per type =               2   4
   NGX,Y,Z   is equivalent  to a cutoff of  24.32, 24.32, 24.32 a.u.
   NGXF,Y,Z  is equivalent  to a cutoff of  48.64, 48.64, 48.64 a.u.

 SYSTEM =  C                                       
 POSCAR =   C  O                                   

 Startparameter for this run:
   NWRITE =      2    write-flag & timer
   PREC   = acc       normal or accurate (medium, high low for compatibility)
   ISTART =      0    job   : 0-new  1-cont  2-samecut
   ICHARG =      2    charge: 1-file 2-atom 10-const
   ISPIN  =      1    spin polarized calculation?
   LNONCOLLINEAR =      F non collinear calculations
   LSORBIT =      F    spin-orbit coupling
   INIWAV =      1    electr: 0-lowe 1-rand  2-diag
   LASPH  =      T    aspherical Exc in radial PAW
   METAGGA=      F    non-selfconsistent MetaGGA calc.

 Electronic Relaxation 1
   ENCUT  = 2000.0 eV 147.00 Ry   12.12 a.u. 127.63127.63127.63*2*pi/ulx,y,z
   ENINI  = 2000.0     initial cutoff
   ENAUG  =  946.8 eV  augmentation charge cutoff
   NELM   =     60;   NELMIN=  2; NELMDL= -5     # of ELM steps 
   EDIFF  = 0.1E-06   stopping-criterion for ELM
   LREAL  =      F    real-space projection
   NLSPLINE    = F    spline interpolate recip. space projectors
   LCOMPAT=      F    compatible to vasp.4.4
   GGA_COMPAT  = T    GGA compatible to vasp.4.4-vasp.4.6
   LMAXPAW     = -100 max onsite density
   LMAXMIX     =    2 max onsite mixed and CHGCAR
   VOSKOWN=      0    Vosko Wilk Nusair interpolation
   ROPT   =    0.00000   0.00000
 Ionic relaxation
   EDIFFG = 0.1E-05   stopping-criterion for IOM
   NSW    =      0    number of steps for IOM
   NBLOCK =      1;   KBLOCK =      1    inner block; outer block 
   IBRION =     -1    ionic relax: 0-MD 1-quasi-New 2-CG
   NFREE  =      0    steps in history (QN), initial steepest desc. (CG)
   ISIF   =      2    stress and relaxation
   IWAVPR =     10    prediction:  0-non 1-charg 2-wave 3-comb
   ISYM   =      2    0-nonsym 1-usesym 2-fastsym
   LCORR  =      T    Harris-Foulkes like correction to forces

   POTIM  = 0.5000    time-step for ionic-motion
   TEIN   =    0.0    initial temperature
   TEBEG  =    0.0;   TEEND  =   0.0 temperature during run
   SMASS  =  -3.00    Nose mass-parameter (am)
   estimated Nose-frequenzy (Omega)   =  0.10E-29 period in steps = 0.13E+47 mass=  -0.280E-25a.u.
   SCALEE = 1.0000    scale energy and forces
   NPACO  =    256;   APACO  = 16.0  distance and # of slots for P.C.
   PSTRESS=    0.0 pullay stress

  Mass of Ions in am
   POMASS =  12.01 16.00
  Ionic Valenz
   ZVAL   =   4.00  6.00
  Atomic Wigner-Seitz radii
   RWIGS  =  -1.00 -1.00
  virtual crystal weights 
   VCA    =   1.00  1.00
   NELECT =      32.0000    total number of electrons
   NUPDOWN=      -1.0000    fix difference up-down

 DOS related values:
   EMIN   =  10.00;   EMAX   =-10.00  energy-range for DOS
   EFERMI =   0.00
   ISMEAR =     0;   SIGMA  =   0.01  broadening in eV -4-tet -1-fermi 0-gaus

 Electronic relaxation 2 (details)
   IALGO  =     38    algorithm
   LDIAG  =      T    sub-space diagonalisation (order eigenvalues)
   LSUBROT=      F    optimize rotation matrix (better conditioning)
   TURBO    =      0    0=normal 1=particle mesh
   IRESTART =      0    0=no restart 2=restart with 2 vectors
   NREBOOT  =      0    no. of reboots
   NMIN     =      0    reboot dimension
   EREF     =   0.00    reference energy to select bands
   IMIX   =      4    mixing-type and parameters
     AMIX     =   0.40;   BMIX     =  1.00
     AMIX_MAG =   1.60;   BMIX_MAG =  1.00
     AMIN     =   0.10
     WC   =   100.;   INIMIX=   1;  MIXPRE=   1;  MAXMIX= -45

 Intra band minimization:
   WEIMIN = 0.0000     energy-eigenvalue tresh-hold
   EBREAK =  0.13E-08  absolut break condition
   DEPER  =   0.30     relativ break condition  

   TIME   =   0.40     timestep for ELM

  volume/ion in A,a.u.               =    7145.83     48222.46
  Fermi-wavevector in a.u.,A,eV,Ry     =   0.148499  0.280622  0.300035  0.022052
  Thomas-Fermi vector in A             =   0.821704
 
 Write flags
   LWAVE        =      T    write WAVECAR
   LDOWNSAMPLE  =      F    k-point downsampling of WAVECAR
   LCHARG       =      T    write CHGCAR
   LVTOT        =      F    write LOCPOT, total local potential
   LVHAR        =      F    write LOCPOT, Hartree potential only
   LELF         =      F    write electronic localiz. function (ELF)
   LORBIT       =      0    0 simple, 1 ext, 2 COOP (PROOUT), +10 PAW based schemes


 Dipole corrections
   LMONO  =      F    monopole corrections only (constant potential shift)
   LDIPOL =      F    correct potential (dipole corrections)
   IDIPOL =      4    1-x, 2-y, 3-z, 4-all directions 
   EPSILON=  1.0000000 bulk dielectric constant

 Exchange correlation treatment:
   GGA     =    --    GGA type
   LEXCH   =     8    internal setting for exchange type
   VOSKOWN=      0    Vosko Wilk Nusair interpolation
   LHFCALC =     F    Hartree Fock is set to
   LHFONE  =     F    Hartree Fock one center treatment
   AEXX    =    0.0000 exact exchange contribution

 Linear response parameters
   LEPSILON=     F    determine dielectric tensor
   LRPA    =     F    only Hartree local field effects (RPA)
   LNABLA  =     F    use nabla operator in PAW spheres
   LVEL    =     F    velocity operator in full k-point grid
   LINTERFAST=   F  fast interpolation
   KINTER  =     0    interpolate to denser k-point grid
   CSHIFT  =0.1000    complex shift for real part using Kramers Kronig
   OMEGAMAX=  -1.0    maximum frequency
   DEG_THRESHOLD= 0.2000000E-02 threshold for treating states as degnerate
   RTIME   =   -0.100 relaxation time in fs
  (WPLASMAI=    0.000 imaginary part of plasma frequency in eV, 0.658/RTIME)
   DFIELD  = 0.0000000 0.0000000 0.0000000 field for delta impulse in time
 
 Orbital magnetization related:
   ORBITALMAG=     F  switch on orbital magnetization
   LCHIMAG   =     F  perturbation theory with respect to B field
   DQ        =  0.001000  dq finite difference perturbation B field
   LLRAUG    =     F  two centre corrections for induced B field



--------------------------------------------------------------------------------------------------------


 Static calculation
 charge density and potential will be updated during run
 non-spin polarized calculation
 Variant of blocked Davidson
 Davidson routine will perform the subspace rotation
 perform sub-space diagonalisation
    after iterative eigenvector-optimisation
 modified Broyden-mixing scheme, WC =      100.0
 initial mixing is a Kerker type mixing with AMIX =  0.4000 and BMIX =      1.0000
 Hartree-type preconditioning will be used
 using additional bands             4
 reciprocal scheme for non local part
 use partial core corrections
 calculate Harris-corrections to forces 
   (improved forces if not selfconsistent)
 use gradient corrections 
 use of overlap-Matrix (Vanderbilt PP)
 Gauss-broadening in eV      SIGMA  =   0.01


--------------------------------------------------------------------------------------------------------


  energy-cutoff  :     2000.00
  volume of cell :    42875.00
      direct lattice vectors                 reciprocal lattice vectors
    35.000000000  0.000000000  0.000000000     0.028571429  0.000000000  0.000000000
     0.000000000 35.000000000  0.000000000     0.000000000  0.028571429  0.000000000
     0.000000000  0.000000000 35.000000000     0.000000000  0.000000000  0.028571429

  length of vectors
    35.000000000 35.000000000 35.000000000     0.028571429  0.028571429  0.028571429


 
 k-points in units of 2pi/SCALE and weight: automatic mesh                          
   0.00000000  0.00000000  0.00000000       1.000
 
 k-points in reciprocal lattice and weights: automatic mesh                          
   0.00000000  0.00000000  0.00000000       1.000
 
 position of ions in fractional coordinates (direct lattice) 
   0.00000000  0.00162817  0.00000000
   0.00000000  0.20278360  0.00000000
   0.00000000  0.03506303  0.00000000
   0.00000000  0.96819331  0.00000000
   0.00000000  0.16934874  0.00000000
   0.00000000  0.23621846  0.00000000
 
 position of ions in cartesian coordinates  (Angst):
   0.00000000  0.05698600  0.00000000
   0.00000000  7.09742600  0.00000000
   0.00000000  1.22720600  0.00000000
   0.00000000 33.88676600  0.00000000
   0.00000000  5.92720600  0.00000000
   0.00000000  8.26764600  0.00000000
 


--------------------------------------------------------------------------------------------------------


 use parallel FFT for orbitals z direction half grid
 k-point   1 :   0.0000 0.0000 0.0000  plane waves: 4353902

 maximum and minimum number of plane-waves per node :    544247   544233

 maximum number of plane-waves:   4353902
 maximum index in each direction: 
   IXMAX=  127   IYMAX=  127   IZMAX=  127
   IXMIN= -127   IYMIN= -127   IZMIN=    0


 parallel 3D FFT for wavefunctions:
    minimum data exchange during FFTs selected (reduces bandwidth)
 parallel 3D FFT for charge:
    minimum data exchange during FFTs selected (reduces bandwidth)


 total amount of memory used by VASP MPI-rank0  7276107. kBytes
=======================================================================

   base      :      30000. kBytes
   nonl-proj :     121908. kBytes
   fftplans  :    2602168. kBytes
   grid      :    4434952. kBytes
   one-center:          1. kBytes
   wavefun   :      87078. kBytes
 
     INWAV:  cpu time    0.0000: real time    0.0000
 Broyden mixing: mesh for mixing (old mesh)
   NGX =255   NGY =255   NGZ =255
  (NGX  =***   NGY  =***   NGZ  =***)
  gives a total of ****** points

 initial charge density was supplied:
 charge density of overlapping atoms calculated
 number of electron      32.0000000 magnetization 
 keeping initial charge density in first step


--------------------------------------------------------------------------------------------------------


 Maximum index for augmentation-charges          1255 (set IRDMAX)


--------------------------------------------------------------------------------------------------------


 First call to EWALD:  gamma=   0.051
 Maximum number of real-space cells 3x 3x 3
 Maximum number of reciprocal cells 3x 3x 3

    FEWALD:  cpu time    0.0009: real time    0.0009


--------------------------------------- Iteration      1(   1)  ---------------------------------------


    POTLOK:  cpu time   46.3511: real time   46.4088
    SETDIJ:  cpu time    0.0503: real time    0.0523
     EDDAV:  cpu time   30.9202: real time   30.9895
       DOS:  cpu time    0.0082: real time    0.0082
    --------------------------------------------
      LOOP:  cpu time   77.3298: real time   77.4588

 eigenvalue-minimisations  :    56
 total energy-change (2. order) : 0.3618892E+03  (-0.6908529E+03)
 number of electron      32.0000000 magnetization 
 augmentation part       32.0000000 magnetization 

 Free energy of the ion-electron system (eV)
  ---------------------------------------------------
  alpha Z        PSCENC =         0.06690403
  Ewald energy   TEWEN  =      1584.43190266
  -Hartree energ DENC   =     -3190.03980744
  -exchange      EXHF   =         0.00000000
  -V(xc)+E(xc)   XCENC  =       116.49501884
  PAW double counting   =      1617.22940962    -1611.57549642
  entropy T*S    EENTRO =        -0.00000000
  eigenvalues    EBANDS =      -178.53851935
  atomic energy  EATOM  =      2023.81978844
  Solvation  Ediel_sol  =         0.00000000
  ---------------------------------------------------
  free energy    TOTEN  =       361.88920037 eV

  energy without entropy =      361.88920037  energy(sigma->0) =      361.88920037


--------------------------------------------------------------------------------------------------------




--------------------------------------- Iteration      1(   2)  ---------------------------------------


     EDDAV:  cpu time   34.2161: real time   34.2693
       DOS:  cpu time    0.0093: real time    0.0093
    --------------------------------------------
      LOOP:  cpu time   34.2254: real time   34.2786

 eigenvalue-minimisations  :    64
 total energy-change (2. order) :-0.1402844E+03  (-0.1400148E+03)
 number of electron      32.0000000 magnetization 
 augmentation part       32.0000000 magnetization 

 Free energy of the ion-electron system (eV)
  ---------------------------------------------------
  alpha Z        PSCENC =         0.06690403
  Ewald energy   TEWEN  =      1584.43190266
  -Hartree energ DENC   =     -3190.03980744
  -exchange      EXHF   =         0.00000000
  -V(xc)+E(xc)   XCENC  =       116.49501884
  PAW double counting   =      1617.22940962    -1611.57549642
  entropy T*S    EENTRO =        -0.00000000
  eigenvalues    EBANDS =      -318.82292245
  atomic energy  EATOM  =      2023.81978844
  Solvation  Ediel_sol  =         0.00000000
  ---------------------------------------------------
  free energy    TOTEN  =       221.60479727 eV

  energy without entropy =      221.60479727  energy(sigma->0) =      221.60479727


--------------------------------------------------------------------------------------------------------




--------------------------------------- Iteration      1(   3)  ---------------------------------------


     EDDAV:  cpu time   37.8342: real time   37.8932
       DOS:  cpu time    0.0058: real time    0.0058
    --------------------------------------------
      LOOP:  cpu time   37.8399: real time   37.8989

 eigenvalue-minimisations  :    72
 total energy-change (2. order) :-0.1478765E+03  (-0.1450539E+03)
 number of electron      32.0000000 magnetization 
 augmentation part       32.0000000 magnetization 

 Free energy of the ion-electron system (eV)
  ---------------------------------------------------
  alpha Z        PSCENC =         0.06690403
  Ewald energy   TEWEN  =      1584.43190266
  -Hartree energ DENC   =     -3190.03980744
  -exchange      EXHF   =         0.00000000
  -V(xc)+E(xc)   XCENC  =       116.49501884
  PAW double counting   =      1617.22940962    -1611.57549642
  entropy T*S    EENTRO =        -0.00000000
  eigenvalues    EBANDS =      -466.69941354
  atomic energy  EATOM  =      2023.81978844
  Solvation  Ediel_sol  =         0.00000000
  ---------------------------------------------------
  free energy    TOTEN  =        73.72830618 eV

  energy without entropy =       73.72830618  energy(sigma->0) =       73.72830618


--------------------------------------------------------------------------------------------------------




--------------------------------------- Iteration      1(   4)  ---------------------------------------


     EDDAV:  cpu time   31.2137: real time   31.2618
       DOS:  cpu time    0.0001: real time    0.0001
    --------------------------------------------
      LOOP:  cpu time   31.2138: real time   31.2619

 eigenvalue-minimisations  :    56
 total energy-change (2. order) :-0.7852416E+02  (-0.7030755E+02)
 number of electron      32.0000000 magnetization 
 augmentation part       32.0000000 magnetization 

 Free energy of the ion-electron system (eV)
  ---------------------------------------------------
  alpha Z        PSCENC =         0.06690403
  Ewald energy   TEWEN  =      1584.43190266
  -Hartree energ DENC   =     -3190.03980744
  -exchange      EXHF   =         0.00000000
  -V(xc)+E(xc)   XCENC  =       116.49501884
  PAW double counting   =      1617.22940962    -1611.57549642
  entropy T*S    EENTRO =        -0.00000000
  eigenvalues    EBANDS =      -545.22357015
  atomic energy  EATOM  =      2023.81978844
  Solvation  Ediel_sol  =         0.00000000
  ---------------------------------------------------
  free energy    TOTEN  =        -4.79585043 eV

  energy without entropy =       -4.79585043  energy(sigma->0) =       -4.79585043


--------------------------------------------------------------------------------------------------------




--------------------------------------- Iteration      1(   5)  ---------------------------------------


     EDDAV:  cpu time   27.9747: real time   28.0179
       DOS:  cpu time    0.0031: real time    0.0031
    CHARGE:  cpu time   24.7358: real time   24.7596
    MIXING:  cpu time    1.0732: real time    1.0745
    --------------------------------------------
      LOOP:  cpu time   53.7868: real time   53.8551

 eigenvalue-minimisations  :    48
 total energy-change (2. order) :-0.4156487E+02  (-0.4154902E+02)
 number of electron      32.0000000 magnetization 
 augmentation part        0.1281677 magnetization 

 Broyden mixing:
  rms(total) = 0.48978E+01    rms(broyden)= 0.48978E+01
  rms(prec ) = 0.49025E+01
  weight for this iteration     100.00

 Free energy of the ion-electron system (eV)
  ---------------------------------------------------
  alpha Z        PSCENC =         0.06690403
  Ewald energy   TEWEN  =      1584.43190266
  -Hartree energ DENC   =     -3190.03980744
  -exchange      EXHF   =         0.00000000
  -V(xc)+E(xc)   XCENC  =       116.49501884
  PAW double counting   =      1617.22940962    -1611.57549642
  entropy T*S    EENTRO =        -0.00000000
  eigenvalues    EBANDS =      -586.78844185
  atomic energy  EATOM  =      2023.81978844
  Solvation  Ediel_sol  =         0.00000000
  ---------------------------------------------------
  free energy    TOTEN  =       -46.36072212 eV

  energy without entropy =      -46.36072212  energy(sigma->0) =      -46.36072212


--------------------------------------------------------------------------------------------------------




--------------------------------------- Iteration      1(   6)  ---------------------------------------


    POTLOK:  cpu time   48.4291: real time   48.4879
    SETDIJ:  cpu time    0.0487: real time    0.0487
     EDDAV:  cpu time   27.7319: real time   27.7746
       DOS:  cpu time    0.0136: real time    0.0136
    CHARGE:  cpu time   24.9871: real time   25.0108
    MIXING:  cpu time    0.9897: real time    0.9957
    --------------------------------------------
      LOOP:  cpu time  102.2001: real time  102.3314

 eigenvalue-minimisations  :    48
 total energy-change (2. order) :-0.6490338E+00  (-0.3337173E+01)
 number of electron      32.0000000 magnetization 
 augmentation part        0.1450651 magnetization 

 Broyden mixing:
  rms(total) = 0.33037E+01    rms(broyden)= 0.33037E+01
  rms(prec ) = 0.33053E+01
  weight for this iteration     100.00

 eigenvalues of (default mixing * dielectric matrix)
  average eigenvalue GAMMA=   2.6432
  2.6432

 Free energy of the ion-electron system (eV)
  ---------------------------------------------------
  alpha Z        PSCENC =         0.06690403
  Ewald energy   TEWEN  =      1584.43190266
  -Hartree energ DENC   =     -3227.69658117
  -exchange      EXHF   =         0.00000000
  -V(xc)+E(xc)   XCENC  =       118.67880617
  PAW double counting   =      7080.02980557    -7074.88348094
  entropy T*S    EENTRO =        -0.00000000
  eigenvalues    EBANDS =      -551.45690066
  atomic energy  EATOM  =      2023.81978844
  Solvation  Ediel_sol  =         0.00000000
  ---------------------------------------------------
  free energy    TOTEN  =       -47.00975590 eV

  energy without entropy =      -47.00975590  energy(sigma->0) =      -47.00975590


--------------------------------------------------------------------------------------------------------




--------------------------------------- Iteration      1(   7)  ---------------------------------------


    POTLOK:  cpu time   47.1163: real time   47.1749
    SETDIJ:  cpu time    0.0489: real time    0.0489
     EDDAV:  cpu time   29.3105: real time   29.3551
       DOS:  cpu time    0.0279: real time    0.0279
    CHARGE:  cpu time   24.5091: real time   24.5323
    MIXING:  cpu time    1.2220: real time    1.2234
    --------------------------------------------
      LOOP:  cpu time  102.2346: real time  102.3626

 eigenvalue-minimisations  :    52
 total energy-change (2. order) : 0.2634652E-01  (-0.1017972E+01)
 number of electron      32.0000000 magnetization 
 augmentation part        0.0683626 magnetization 

 Broyden mixing:
  rms(total) = 0.72181E+00    rms(broyden)= 0.72181E+00
  rms(prec ) = 0.73034E+00
  weight for this iteration     100.00

 eigenvalues of (default mixing * dielectric matrix)
  average eigenvalue GAMMA=   1.8195
  0.8547  2.7844

 Free energy of the ion-electron system (eV)
  ---------------------------------------------------
  alpha Z        PSCENC =         0.06690403
  Ewald energy   TEWEN  =      1584.43190266
  -Hartree energ DENC   =     -3289.62338737
  -exchange      EXHF   =         0.00000000
  -V(xc)+E(xc)   XCENC  =       122.01516608
  PAW double counting   =     24692.14082768   -24687.88359289
  entropy T*S    EENTRO =        -0.00000000
  eigenvalues    EBANDS =      -491.95101801
  atomic energy  EATOM  =      2023.81978844
  Solvation  Ediel_sol  =         0.00000000
  ---------------------------------------------------
  free energy    TOTEN  =       -46.98340938 eV

  energy without entropy =      -46.98340938  energy(sigma->0) =      -46.98340938


--------------------------------------------------------------------------------------------------------




--------------------------------------- Iteration      1(   8)  ---------------------------------------


    POTLOK:  cpu time   47.1491: real time   47.2083
    SETDIJ:  cpu time    0.0489: real time    0.0489
     EDDAV:  cpu time   27.6541: real time   27.6975
       DOS:  cpu time    0.0153: real time    0.0153
    CHARGE:  cpu time   24.5812: real time   24.6051
    MIXING:  cpu time    1.0555: real time    1.0569
    --------------------------------------------
      LOOP:  cpu time  100.5041: real time  100.6321

 eigenvalue-minimisations  :    48
 total energy-change (2. order) : 0.5117585E+00  (-0.2673251E+00)
 number of electron      32.0000000 magnetization 
 augmentation part        0.1207455 magnetization 

 Broyden mixing:
  rms(total) = 0.25860E+00    rms(broyden)= 0.25860E+00
  rms(prec ) = 0.25935E+00
  weight for this iteration     100.00

 eigenvalues of (default mixing * dielectric matrix)
  average eigenvalue GAMMA=   1.4701
  2.6470  0.8816  0.8816

 Free energy of the ion-electron system (eV)
  ---------------------------------------------------
  alpha Z        PSCENC =         0.06690403
  Ewald energy   TEWEN  =      1584.43190266
  -Hartree energ DENC   =     -3274.47147806
  -exchange      EXHF   =         0.00000000
  -V(xc)+E(xc)   XCENC  =       121.04508471
  PAW double counting   =     26140.10596485   -26135.53353724
  entropy T*S    EENTRO =        -0.00000000
  eigenvalues    EBANDS =      -505.93628031
  atomic energy  EATOM  =      2023.81978844
  Solvation  Ediel_sol  =         0.00000000
  ---------------------------------------------------
  free energy    TOTEN  =       -46.47165093 eV

  energy without entropy =      -46.47165093  energy(sigma->0) =      -46.47165093


--------------------------------------------------------------------------------------------------------




--------------------------------------- Iteration      1(   9)  ---------------------------------------


    POTLOK:  cpu time   47.0988: real time   47.1571
    SETDIJ:  cpu time    0.0770: real time    0.0770
     EDDAV:  cpu time   31.0608: real time   31.1077
       DOS:  cpu time    0.0116: real time    0.0116
    CHARGE:  cpu time   24.3745: real time   24.3987
    MIXING:  cpu time    1.1089: real time    1.1103
    --------------------------------------------
      LOOP:  cpu time  103.7317: real time  103.8624

 eigenvalue-minimisations  :    56
 total energy-change (2. order) :-0.8148504E-04  (-0.1448252E-01)
 number of electron      32.0000000 magnetization 
 augmentation part        0.1196026 magnetization 

 Broyden mixing:
  rms(total) = 0.88533E-01    rms(broyden)= 0.88533E-01
  rms(prec ) = 0.89221E-01
  weight for this iteration     100.00

 eigenvalues of (default mixing * dielectric matrix)
  average eigenvalue GAMMA=   1.3712
  2.5388  0.9410  1.0024  1.0024

 Free energy of the ion-electron system (eV)
  ---------------------------------------------------
  alpha Z        PSCENC =         0.06690403
  Ewald energy   TEWEN  =      1584.43190266
  -Hartree energ DENC   =     -3271.13183881
  -exchange      EXHF   =         0.00000000
  -V(xc)+E(xc)   XCENC  =       120.85153604
  PAW double counting   =     25116.10757695   -25111.49366606
  entropy T*S    EENTRO =        -0.00000000
  eigenvalues    EBANDS =      -509.12393566
  atomic energy  EATOM  =      2023.81978844
  Solvation  Ediel_sol  =         0.00000000
  ---------------------------------------------------
  free energy    TOTEN  =       -46.47173241 eV

  energy without entropy =      -46.47173241  energy(sigma->0) =      -46.47173241


--------------------------------------------------------------------------------------------------------




--------------------------------------- Iteration      1(  10)  ---------------------------------------


    POTLOK:  cpu time   47.0057: real time   47.0639
    SETDIJ:  cpu time    0.0557: real time    0.0558
     EDDAV:  cpu time   27.6947: real time   27.7373
       DOS:  cpu time    0.0149: real time    0.0149
    CHARGE:  cpu time   24.4608: real time   24.4840
    MIXING:  cpu time    1.6176: real time    1.6193
    --------------------------------------------
      LOOP:  cpu time  100.8494: real time  100.9751

 eigenvalue-minimisations  :    48
 total energy-change (2. order) : 0.7947820E-03  (-0.1493831E-02)
 number of electron      32.0000000 magnetization 
 augmentation part        0.1205494 magnetization 

 Broyden mixing:
  rms(total) = 0.52820E-01    rms(broyden)= 0.52820E-01
  rms(prec ) = 0.53180E-01
  weight for this iteration     100.00

 eigenvalues of (default mixing * dielectric matrix)
  average eigenvalue GAMMA=   1.4424
  2.2040  2.2040  1.0009  1.0009  0.8021

 Free energy of the ion-electron system (eV)
  ---------------------------------------------------
  alpha Z        PSCENC =         0.06690403
  Ewald energy   TEWEN  =      1584.43190266
  -Hartree energ DENC   =     -3269.95666366
  -exchange      EXHF   =         0.00000000
  -V(xc)+E(xc)   XCENC  =       120.78206022
  PAW double counting   =     24736.86404170   -24732.22191030
  entropy T*S    EENTRO =        -0.00000000
  eigenvalues    EBANDS =      -510.25706071
  atomic energy  EATOM  =      2023.81978844
  Solvation  Ediel_sol  =         0.00000000
  ---------------------------------------------------
  free energy    TOTEN  =       -46.47093763 eV

  energy without entropy =      -46.47093763  energy(sigma->0) =      -46.47093763


--------------------------------------------------------------------------------------------------------




--------------------------------------- Iteration      1(  11)  ---------------------------------------


    POTLOK:  cpu time   46.9332: real time   46.9937
    SETDIJ:  cpu time    0.0525: real time    0.0525
     EDDAV:  cpu time   29.3891: real time   29.4334
       DOS:  cpu time    0.0155: real time    0.0155
    CHARGE:  cpu time   24.6752: real time   24.6997
    MIXING:  cpu time    1.1037: real time    1.1052
    --------------------------------------------
      LOOP:  cpu time  102.1693: real time  102.3001

 eigenvalue-minimisations  :    52
 total energy-change (2. order) :-0.4273120E-02  (-0.3808893E-03)
 number of electron      32.0000000 magnetization 
 augmentation part        0.1209247 magnetization 

 Broyden mixing:
  rms(total) = 0.21345E-01    rms(broyden)= 0.21345E-01
  rms(prec ) = 0.21838E-01
  weight for this iteration     100.00

 eigenvalues of (default mixing * dielectric matrix)
  average eigenvalue GAMMA=   1.4992
  2.4107  2.4107  1.2864  0.9800  0.9536  0.9536

 Free energy of the ion-electron system (eV)
  ---------------------------------------------------
  alpha Z        PSCENC =         0.06690403
  Ewald energy   TEWEN  =      1584.43190266
  -Hartree energ DENC   =     -3269.71527733
  -exchange      EXHF   =         0.00000000
  -V(xc)+E(xc)   XCENC  =       120.74441770
  PAW double counting   =     24294.14505120   -24289.48632081
  entropy T*S    EENTRO =        -0.00000000
  eigenvalues    EBANDS =      -510.48167665
  atomic energy  EATOM  =      2023.81978844
  Solvation  Ediel_sol  =         0.00000000
  ---------------------------------------------------
  free energy    TOTEN  =       -46.47521075 eV

  energy without entropy =      -46.47521075  energy(sigma->0) =      -46.47521075


--------------------------------------------------------------------------------------------------------




--------------------------------------- Iteration      1(  12)  ---------------------------------------


    POTLOK:  cpu time   46.8701: real time   46.9282
    SETDIJ:  cpu time    0.0518: real time    0.0518
     EDDAV:  cpu time   31.0074: real time   31.0561
       DOS:  cpu time    0.0161: real time    0.0162
    CHARGE:  cpu time   24.4863: real time   24.5099
    MIXING:  cpu time    1.6965: real time    1.6983
    --------------------------------------------
      LOOP:  cpu time  104.1282: real time  104.2605

 eigenvalue-minimisations  :    56
 total energy-change (2. order) :-0.3436308E-02  (-0.1369213E-03)
 number of electron      32.0000000 magnetization 
 augmentation part        0.1211266 magnetization 

 Broyden mixing:
  rms(total) = 0.21358E-01    rms(broyden)= 0.21358E-01
  rms(prec ) = 0.21559E-01
  weight for this iteration     100.00

 eigenvalues of (default mixing * dielectric matrix)
  average eigenvalue GAMMA=   1.4662
  2.6145  2.6145  1.5561  0.9773  0.9773  0.8328  0.6908

 Free energy of the ion-electron system (eV)
  ---------------------------------------------------
  alpha Z        PSCENC =         0.06690403
  Ewald energy   TEWEN  =      1584.43190266
  -Hartree energ DENC   =     -3271.03251797
  -exchange      EXHF   =         0.00000000
  -V(xc)+E(xc)   XCENC  =       120.78357163
  PAW double counting   =     24445.85590954   -24441.20229980
  entropy T*S    EENTRO =        -0.00000000
  eigenvalues    EBANDS =      -509.20190559
  atomic energy  EATOM  =      2023.81978844
  Solvation  Ediel_sol  =         0.00000000
  ---------------------------------------------------
  free energy    TOTEN  =       -46.47864706 eV

  energy without entropy =      -46.47864706  energy(sigma->0) =      -46.47864706


--------------------------------------------------------------------------------------------------------




--------------------------------------- Iteration      1(  13)  ---------------------------------------


    POTLOK:  cpu time   46.9297: real time   46.9878
    SETDIJ:  cpu time    0.0489: real time    0.0489
     EDDAV:  cpu time   34.2315: real time   34.2837
       DOS:  cpu time    0.0086: real time    0.0087
    CHARGE:  cpu time   24.9670: real time   24.9903
    MIXING:  cpu time    1.2126: real time    1.2143
    --------------------------------------------
      LOOP:  cpu time  107.3983: real time  107.5335

 eigenvalue-minimisations  :    64
 total energy-change (2. order) :-0.2004373E-02  (-0.2342901E-04)
 number of electron      32.0000000 magnetization 
 augmentation part        0.1208077 magnetization 

 Broyden mixing:
  rms(total) = 0.34464E-02    rms(broyden)= 0.34464E-02
  rms(prec ) = 0.41472E-02
  weight for this iteration     100.00

 eigenvalues of (default mixing * dielectric matrix)
  average eigenvalue GAMMA=   1.3858
  2.6376  2.6118  1.5130  0.9720  0.9720  0.8621  0.7588  0.7588

 Free energy of the ion-electron system (eV)
  ---------------------------------------------------
  alpha Z        PSCENC =         0.06690403
  Ewald energy   TEWEN  =      1584.43190266
  -Hartree energ DENC   =     -3271.49341316
  -exchange      EXHF   =         0.00000000
  -V(xc)+E(xc)   XCENC  =       120.79392430
  PAW double counting   =     24359.75205846   -24355.10029364
  entropy T*S    EENTRO =        -0.00000000
  eigenvalues    EBANDS =      -508.75152253
  atomic energy  EATOM  =      2023.81978844
  Solvation  Ediel_sol  =         0.00000000
  ---------------------------------------------------
  free energy    TOTEN  =       -46.48065143 eV

  energy without entropy =      -46.48065143  energy(sigma->0) =      -46.48065143


--------------------------------------------------------------------------------------------------------




--------------------------------------- Iteration      1(  14)  ---------------------------------------


    POTLOK:  cpu time   46.9245: real time   46.9821
    SETDIJ:  cpu time    0.0603: real time    0.0603
     EDDAV:  cpu time   31.0380: real time   31.0853
       DOS:  cpu time    0.0134: real time    0.0134
    CHARGE:  cpu time   24.4445: real time   24.4676
    MIXING:  cpu time    1.7380: real time    1.7399
    --------------------------------------------
      LOOP:  cpu time  104.2185: real time  104.3485

 eigenvalue-minimisations  :    56
 total energy-change (2. order) :-0.9595864E-03  (-0.3313294E-05)
 number of electron      32.0000000 magnetization 
 augmentation part        0.1207483 magnetization 

 Broyden mixing:
  rms(total) = 0.41908E-02    rms(broyden)= 0.41908E-02
  rms(prec ) = 0.46551E-02
  weight for this iteration     100.00

 eigenvalues of (default mixing * dielectric matrix)
  average eigenvalue GAMMA=   1.4511
  2.8965  2.5664  1.5448  1.2438  1.2438  0.9952  0.9952  0.7870  0.7870

 Free energy of the ion-electron system (eV)
  ---------------------------------------------------
  alpha Z        PSCENC =         0.06690403
  Ewald energy   TEWEN  =      1584.43190266
  -Hartree energ DENC   =     -3271.64874358
  -exchange      EXHF   =         0.00000000
  -V(xc)+E(xc)   XCENC  =       120.79585075
  PAW double counting   =     24376.45149812   -24371.79955813
  entropy T*S    EENTRO =        -0.00000000
  eigenvalues    EBANDS =      -508.59925330
  atomic energy  EATOM  =      2023.81978844
  Solvation  Ediel_sol  =         0.00000000
  ---------------------------------------------------
  free energy    TOTEN  =       -46.48161102 eV

  energy without entropy =      -46.48161102  energy(sigma->0) =      -46.48161102


--------------------------------------------------------------------------------------------------------




--------------------------------------- Iteration      1(  15)  ---------------------------------------


    POTLOK:  cpu time   46.8466: real time   46.9041
    SETDIJ:  cpu time    0.0572: real time    0.0572
     EDDAV:  cpu time   31.0107: real time   31.0587
       DOS:  cpu time    0.0051: real time    0.0051
    CHARGE:  cpu time   24.4185: real time   24.4417
    MIXING:  cpu time    1.9063: real time    1.9083
    --------------------------------------------
      LOOP:  cpu time  104.2444: real time  104.3752

 eigenvalue-minimisations  :    56
 total energy-change (2. order) :-0.2812653E-02  (-0.2366215E-04)
 number of electron      32.0000000 magnetization 
 augmentation part        0.1206906 magnetization 

 Broyden mixing:
  rms(total) = 0.24457E-02    rms(broyden)= 0.24457E-02
  rms(prec ) = 0.27463E-02
  weight for this iteration     100.00

 eigenvalues of (default mixing * dielectric matrix)
  average eigenvalue GAMMA=   1.4455
  3.0604  2.5000  1.5249  1.5249  1.4652  0.9978  0.9978  0.8593  0.7624  0.7624

 Free energy of the ion-electron system (eV)
  ---------------------------------------------------
  alpha Z        PSCENC =         0.06690403
  Ewald energy   TEWEN  =      1584.43190266
  -Hartree energ DENC   =     -3272.10614703
  -exchange      EXHF   =         0.00000000
  -V(xc)+E(xc)   XCENC  =       120.79923907
  PAW double counting   =     24357.56307253   -24352.91060991
  entropy T*S    EENTRO =        -0.00000000
  eigenvalues    EBANDS =      -508.14857346
  atomic energy  EATOM  =      2023.81978844
  Solvation  Ediel_sol  =         0.00000000
  ---------------------------------------------------
  free energy    TOTEN  =       -46.48442367 eV

  energy without entropy =      -46.48442367  energy(sigma->0) =      -46.48442367


--------------------------------------------------------------------------------------------------------




--------------------------------------- Iteration      1(  16)  ---------------------------------------


    POTLOK:  cpu time   46.7383: real time   46.7964
    SETDIJ:  cpu time    0.0579: real time    0.0579
     EDDAV:  cpu time   34.2078: real time   34.2596
       DOS:  cpu time    0.0144: real time    0.0144
    CHARGE:  cpu time   24.4825: real time   24.5063
    MIXING:  cpu time    1.8640: real time    1.8661
    --------------------------------------------
      LOOP:  cpu time  107.3648: real time  107.5007

 eigenvalue-minimisations  :    64
 total energy-change (2. order) :-0.1255466E-02  (-0.7643761E-05)
 number of electron      32.0000000 magnetization 
 augmentation part        0.1206745 magnetization 

 Broyden mixing:
  rms(total) = 0.23040E-02    rms(broyden)= 0.23040E-02
  rms(prec ) = 0.24615E-02
  weight for this iteration     100.00

 eigenvalues of (default mixing * dielectric matrix)
  average eigenvalue GAMMA=   1.5311
  3.8891  2.5804  2.1718  1.7679  1.0779  1.0779  0.9675  0.9675  0.8655  0.7383
  0.7383

 Free energy of the ion-electron system (eV)
  ---------------------------------------------------
  alpha Z        PSCENC =         0.06690403
  Ewald energy   TEWEN  =      1584.43190266
  -Hartree energ DENC   =     -3272.33789671
  -exchange      EXHF   =         0.00000000
  -V(xc)+E(xc)   XCENC  =       120.80058747
  PAW double counting   =     24360.49532366   -24355.84259910
  entropy T*S    EENTRO =        -0.00000000
  eigenvalues    EBANDS =      -507.91968958
  atomic energy  EATOM  =      2023.81978844
  Solvation  Ediel_sol  =         0.00000000
  ---------------------------------------------------
  free energy    TOTEN  =       -46.48567914 eV

  energy without entropy =      -46.48567914  energy(sigma->0) =      -46.48567914


--------------------------------------------------------------------------------------------------------




--------------------------------------- Iteration      1(  17)  ---------------------------------------


    POTLOK:  cpu time   46.5265: real time   46.5842
    SETDIJ:  cpu time    0.0615: real time    0.0615
     EDDAV:  cpu time   30.9867: real time   31.0333
       DOS:  cpu time    0.0144: real time    0.0144
    CHARGE:  cpu time   24.3955: real time   24.4186
    MIXING:  cpu time    1.7204: real time    1.7225
    --------------------------------------------
      LOOP:  cpu time  103.7049: real time  103.8345

 eigenvalue-minimisations  :    56
 total energy-change (2. order) :-0.6750458E-03  (-0.5504060E-05)
 number of electron      32.0000000 magnetization 
 augmentation part        0.1206676 magnetization 

 Broyden mixing:
  rms(total) = 0.17783E-02    rms(broyden)= 0.17783E-02
  rms(prec ) = 0.18754E-02
  weight for this iteration     100.00

 eigenvalues of (default mixing * dielectric matrix)
  average eigenvalue GAMMA=   1.6129
  5.0811  2.5709  2.5709  1.4876  1.1221  1.1221  1.0290  1.0290  0.8793  0.8793
  0.7915  0.7915

 Free energy of the ion-electron system (eV)
  ---------------------------------------------------
  alpha Z        PSCENC =         0.06690403
  Ewald energy   TEWEN  =      1584.43190266
  -Hartree energ DENC   =     -3272.50720591
  -exchange      EXHF   =         0.00000000
  -V(xc)+E(xc)   XCENC  =       120.80105838
  PAW double counting   =     24357.96605731   -24353.31297615
  entropy T*S    EENTRO =        -0.00000000
  eigenvalues    EBANDS =      -507.75188294
  atomic energy  EATOM  =      2023.81978844
  Solvation  Ediel_sol  =         0.00000000
  ---------------------------------------------------
  free energy    TOTEN  =       -46.48635418 eV

  energy without entropy =      -46.48635418  energy(sigma->0) =      -46.48635418


--------------------------------------------------------------------------------------------------------




--------------------------------------- Iteration      1(  18)  ---------------------------------------


    POTLOK:  cpu time   46.7946: real time   46.8527
    SETDIJ:  cpu time    0.0593: real time    0.0593
     EDDAV:  cpu time   34.1796: real time   34.2312
       DOS:  cpu time    0.0241: real time    0.0241
    CHARGE:  cpu time   24.6073: real time   24.6308
    MIXING:  cpu time    2.0740: real time    2.0763
    --------------------------------------------
      LOOP:  cpu time  107.7389: real time  107.8744

 eigenvalue-minimisations  :    64
 total energy-change (2. order) :-0.5612434E-03  (-0.2528867E-05)
 number of electron      32.0000000 magnetization 
 augmentation part        0.1206984 magnetization 

 Broyden mixing:
  rms(total) = 0.70146E-03    rms(broyden)= 0.70146E-03
  rms(prec ) = 0.80849E-03
  weight for this iteration     100.00

 eigenvalues of (default mixing * dielectric matrix)
  average eigenvalue GAMMA=   1.6620
  5.6519  2.7925  2.3967  1.7308  1.7308  0.9977  0.9977  1.0982  0.9218  0.9218
  0.8170  0.7742  0.7742

 Free energy of the ion-electron system (eV)
  ---------------------------------------------------
  alpha Z        PSCENC =         0.06690403
  Ewald energy   TEWEN  =      1584.43190266
  -Hartree energ DENC   =     -3272.64041569
  -exchange      EXHF   =         0.00000000
  -V(xc)+E(xc)   XCENC  =       120.80164280
  PAW double counting   =     24359.01018678   -24354.35703875
  entropy T*S    EENTRO =        -0.00000000
  eigenvalues    EBANDS =      -507.61988569
  atomic energy  EATOM  =      2023.81978844
  Solvation  Ediel_sol  =         0.00000000
  ---------------------------------------------------
  free energy    TOTEN  =       -46.48691543 eV

  energy without entropy =      -46.48691543  energy(sigma->0) =      -46.48691543


--------------------------------------------------------------------------------------------------------




--------------------------------------- Iteration      1(  19)  ---------------------------------------


    POTLOK:  cpu time   46.5090: real time   46.5673
    SETDIJ:  cpu time    0.0561: real time    0.0561
     EDDAV:  cpu time   34.1888: real time   34.2412
       DOS:  cpu time    0.0125: real time    0.0125
    CHARGE:  cpu time   24.6277: real time   24.6507
    MIXING:  cpu time    1.8327: real time    1.8350
    --------------------------------------------
      LOOP:  cpu time  107.2266: real time  107.3627

 eigenvalue-minimisations  :    64
 total energy-change (2. order) :-0.6274149E-03  (-0.2324729E-05)
 number of electron      32.0000000 magnetization 
 augmentation part        0.1206872 magnetization 

 Broyden mixing:
  rms(total) = 0.40359E-03    rms(broyden)= 0.40359E-03
  rms(prec ) = 0.46626E-03
  weight for this iteration     100.00

 eigenvalues of (default mixing * dielectric matrix)
  average eigenvalue GAMMA=   1.8089
  6.9139  3.4172  2.5852  2.5852  1.5149  1.0098  1.0098  0.9981  0.9981  0.9098
  0.9092  0.9092  0.7824  0.7824

 Free energy of the ion-electron system (eV)
  ---------------------------------------------------
  alpha Z        PSCENC =         0.06690403
  Ewald energy   TEWEN  =      1584.43190266
  -Hartree energ DENC   =     -3272.72243503
  -exchange      EXHF   =         0.00000000
  -V(xc)+E(xc)   XCENC  =       120.80142812
  PAW double counting   =     24358.47293565   -24353.81982995
  entropy T*S    EENTRO =        -0.00000000
  eigenvalues    EBANDS =      -507.53823675
  atomic energy  EATOM  =      2023.81978844
  Solvation  Ediel_sol  =         0.00000000
  ---------------------------------------------------
  free energy    TOTEN  =       -46.48754284 eV

  energy without entropy =      -46.48754284  energy(sigma->0) =      -46.48754284


--------------------------------------------------------------------------------------------------------




--------------------------------------- Iteration      1(  20)  ---------------------------------------


    POTLOK:  cpu time   46.3003: real time   46.3587
    SETDIJ:  cpu time    0.0534: real time    0.0534
     EDDAV:  cpu time   31.0281: real time   31.0749
       DOS:  cpu time    0.0196: real time    0.0196
    CHARGE:  cpu time   24.5202: real time   24.5440
    MIXING:  cpu time    1.9046: real time    1.9070
    --------------------------------------------
      LOOP:  cpu time  103.8261: real time  103.9575

 eigenvalue-minimisations  :    56
 total energy-change (2. order) :-0.3643098E-03  (-0.1403660E-05)
 number of electron      32.0000000 magnetization 
 augmentation part        0.1206629 magnetization 

 Broyden mixing:
  rms(total) = 0.22569E-03    rms(broyden)= 0.22569E-03
  rms(prec ) = 0.25658E-03
  weight for this iteration     100.00

 eigenvalues of (default mixing * dielectric matrix)
  average eigenvalue GAMMA=   1.8625
  7.4475  3.5442  2.4783  2.4783  2.0761  1.5759  0.9883  0.9883  1.0803  0.9929
  0.9929  0.8700  0.8700  0.7771  0.7771

 Free energy of the ion-electron system (eV)
  ---------------------------------------------------
  alpha Z        PSCENC =         0.06690403
  Ewald energy   TEWEN  =      1584.43190266
  -Hartree energ DENC   =     -3272.76831107
  -exchange      EXHF   =         0.00000000
  -V(xc)+E(xc)   XCENC  =       120.80120118
  PAW double counting   =     24359.98716715   -24355.33406901
  entropy T*S    EENTRO =        -0.00000000
  eigenvalues    EBANDS =      -507.49249053
  atomic energy  EATOM  =      2023.81978844
  Solvation  Ediel_sol  =         0.00000000
  ---------------------------------------------------
  free energy    TOTEN  =       -46.48790715 eV

  energy without entropy =      -46.48790715  energy(sigma->0) =      -46.48790715


--------------------------------------------------------------------------------------------------------




--------------------------------------- Iteration      1(  21)  ---------------------------------------


    POTLOK:  cpu time   46.2251: real time   46.2825
    SETDIJ:  cpu time    0.0499: real time    0.0499
     EDDAV:  cpu time   30.9069: real time   30.9560
       DOS:  cpu time    0.0107: real time    0.0107
    CHARGE:  cpu time   24.4432: real time   24.4665
    MIXING:  cpu time    1.6315: real time    1.6338
    --------------------------------------------
      LOOP:  cpu time  103.2672: real time  103.3995

 eigenvalue-minimisations  :    56
 total energy-change (2. order) :-0.1389766E-03  (-0.1988633E-06)
 number of electron      32.0000000 magnetization 
 augmentation part        0.1206726 magnetization 

 Broyden mixing:
  rms(total) = 0.24611E-03    rms(broyden)= 0.24611E-03
  rms(prec ) = 0.25679E-03
  weight for this iteration     100.00

 eigenvalues of (default mixing * dielectric matrix)
  average eigenvalue GAMMA=   2.0155
  8.2570  4.8258  2.7909  2.7909  2.4574  1.4356  1.4356  0.9868  0.9868  0.9947
  0.9947  0.9855  0.8708  0.8708  0.7823  0.7823

 Free energy of the ion-electron system (eV)
  ---------------------------------------------------
  alpha Z        PSCENC =         0.06690403
  Ewald energy   TEWEN  =      1584.43190266
  -Hartree energ DENC   =     -3272.76962427
  -exchange      EXHF   =         0.00000000
  -V(xc)+E(xc)   XCENC  =       120.80043741
  PAW double counting   =     24361.45801485   -24356.80471862
  entropy T*S    EENTRO =        -0.00000000
  eigenvalues    EBANDS =      -507.49075062
  atomic energy  EATOM  =      2023.81978844
  Solvation  Ediel_sol  =         0.00000000
  ---------------------------------------------------
  free energy    TOTEN  =       -46.48804613 eV

  energy without entropy =      -46.48804613  energy(sigma->0) =      -46.48804613


--------------------------------------------------------------------------------------------------------




--------------------------------------- Iteration      1(  22)  ---------------------------------------


    POTLOK:  cpu time   46.0771: real time   46.1362
    SETDIJ:  cpu time    0.0546: real time    0.0547
     EDDAV:  cpu time   27.8186: real time   27.8603
       DOS:  cpu time    0.0137: real time    0.0137
    CHARGE:  cpu time   24.4732: real time   24.4959
    MIXING:  cpu time    1.8295: real time    1.8320
    --------------------------------------------
      LOOP:  cpu time  100.2666: real time  100.3928

 eigenvalue-minimisations  :    48
 total energy-change (2. order) :-0.1037569E-03  (-0.2508078E-06)
 number of electron      32.0000000 magnetization 
 augmentation part        0.1206710 magnetization 

 Broyden mixing:
  rms(total) = 0.12427E-03    rms(broyden)= 0.12427E-03
  rms(prec ) = 0.12825E-03
  weight for this iteration     100.00

 eigenvalues of (default mixing * dielectric matrix)
  average eigenvalue GAMMA=   1.9788
  8.4835  5.1438  2.6940  2.6940  2.4633  1.3579  1.3579  1.3058  0.9851  0.9851
  0.9930  0.9930  0.9140  0.8495  0.8495  0.7852  0.7852

 Free energy of the ion-electron system (eV)
  ---------------------------------------------------
  alpha Z        PSCENC =         0.06690403
  Ewald energy   TEWEN  =      1584.43190266
  -Hartree energ DENC   =     -3272.77824040
  -exchange      EXHF   =         0.00000000
  -V(xc)+E(xc)   XCENC  =       120.80025544
  PAW double counting   =     24360.78091202   -24356.12763048
  entropy T*S    EENTRO =        -0.00000000
  eigenvalues    EBANDS =      -507.48204160
  atomic energy  EATOM  =      2023.81978844
  Solvation  Ediel_sol  =         0.00000000
  ---------------------------------------------------
  free energy    TOTEN  =       -46.48814988 eV

  energy without entropy =      -46.48814988  energy(sigma->0) =      -46.48814988


--------------------------------------------------------------------------------------------------------




--------------------------------------- Iteration      1(  23)  ---------------------------------------


    POTLOK:  cpu time   46.0106: real time   46.0682
    SETDIJ:  cpu time    0.0597: real time    0.0597
     EDDAV:  cpu time   21.3089: real time   21.3418
       DOS:  cpu time    0.0153: real time    0.0153
    CHARGE:  cpu time   24.4097: real time   24.4328
    MIXING:  cpu time    2.0976: real time    2.1004
    --------------------------------------------
      LOOP:  cpu time   93.9017: real time   94.0183

 eigenvalue-minimisations  :    32
 total energy-change (2. order) :-0.1236074E-04  (-0.1066967E-07)
 number of electron      32.0000000 magnetization 
 augmentation part        0.1206701 magnetization 

 Broyden mixing:
  rms(total) = 0.74304E-04    rms(broyden)= 0.74304E-04
  rms(prec ) = 0.78686E-04
  weight for this iteration     100.00

 eigenvalues of (default mixing * dielectric matrix)
  average eigenvalue GAMMA=   2.1170
  9.0455  5.6308  3.6303  2.6247  2.5580  2.5580  1.4331  1.4331  0.9876  0.9876
  0.9926  0.9926  1.0320  0.7830  0.7830  0.9090  0.8624  0.8624

 Free energy of the ion-electron system (eV)
  ---------------------------------------------------
  alpha Z        PSCENC =         0.06690403
  Ewald energy   TEWEN  =      1584.43190266
  -Hartree energ DENC   =     -3272.78079197
  -exchange      EXHF   =         0.00000000
  -V(xc)+E(xc)   XCENC  =       120.80031508
  PAW double counting   =     24360.56915554   -24355.91590330
  entropy T*S    EENTRO =        -0.00000000
  eigenvalues    EBANDS =      -507.47953273
  atomic energy  EATOM  =      2023.81978844
  Solvation  Ediel_sol  =         0.00000000
  ---------------------------------------------------
  free energy    TOTEN  =       -46.48816225 eV

  energy without entropy =      -46.48816225  energy(sigma->0) =      -46.48816225


--------------------------------------------------------------------------------------------------------




--------------------------------------- Iteration      1(  24)  ---------------------------------------


    POTLOK:  cpu time   46.1215: real time   46.1793
    SETDIJ:  cpu time    0.0539: real time    0.0540
     EDDAV:  cpu time   24.4416: real time   24.4795
       DOS:  cpu time    0.0152: real time    0.0152
    CHARGE:  cpu time   24.3228: real time   24.3461
    MIXING:  cpu time    2.0938: real time    2.0966
    --------------------------------------------
      LOOP:  cpu time   97.0487: real time   97.1707

 eigenvalue-minimisations  :    40
 total energy-change (2. order) :-0.3096849E-04  (-0.3091939E-07)
 number of electron      32.0000000 magnetization 
 augmentation part        0.1206672 magnetization 

 Broyden mixing:
  rms(total) = 0.68532E-04    rms(broyden)= 0.68532E-04
  rms(prec ) = 0.69253E-04
  weight for this iteration     100.00

 eigenvalues of (default mixing * dielectric matrix)
  average eigenvalue GAMMA=   2.1096
  9.3656  5.9026  4.0398  2.6219  2.5023  2.5023  1.4637  1.4637  0.9871  0.9871
  0.9936  0.9936  1.1206  0.7854  0.7854  0.8462  0.8462  0.9376  0.9376

 Free energy of the ion-electron system (eV)
  ---------------------------------------------------
  alpha Z        PSCENC =         0.06690403
  Ewald energy   TEWEN  =      1584.43190266
  -Hartree energ DENC   =     -3272.78752178
  -exchange      EXHF   =         0.00000000
  -V(xc)+E(xc)   XCENC  =       120.80043792
  PAW double counting   =     24359.78921613   -24355.13601050
  entropy T*S    EENTRO =        -0.00000000
  eigenvalues    EBANDS =      -507.47291011
  atomic energy  EATOM  =      2023.81978844
  Solvation  Ediel_sol  =         0.00000000
  ---------------------------------------------------
  free energy    TOTEN  =       -46.48819321 eV

  energy without entropy =      -46.48819321  energy(sigma->0) =      -46.48819321


--------------------------------------------------------------------------------------------------------




--------------------------------------- Iteration      1(  25)  ---------------------------------------


    POTLOK:  cpu time   45.9943: real time   46.0516
    SETDIJ:  cpu time    0.0573: real time    0.0574
     EDDAV:  cpu time   21.2934: real time   21.3253
       DOS:  cpu time    0.0124: real time    0.0124
    CHARGE:  cpu time   24.5276: real time   24.5508
    MIXING:  cpu time    2.2104: real time    2.2134
    --------------------------------------------
      LOOP:  cpu time   94.0955: real time   94.2109

 eigenvalue-minimisations  :    32
 total energy-change (2. order) :-0.3187210E-05  (-0.3087440E-08)
 number of electron      32.0000000 magnetization 
 augmentation part        0.1206688 magnetization 

 Broyden mixing:
  rms(total) = 0.36860E-04    rms(broyden)= 0.36860E-04
  rms(prec ) = 0.37411E-04
  weight for this iteration     100.00

 eigenvalues of (default mixing * dielectric matrix)
  average eigenvalue GAMMA=   2.1607
  9.4603  6.2007  4.3438  2.7759  2.7759  2.3530  2.3530  1.3814  1.3814  0.9864
  0.9864  1.0011  1.0011  1.0673  0.7832  0.7832  0.9321  0.9321  0.8578  0.8578

 Free energy of the ion-electron system (eV)
  ---------------------------------------------------
  alpha Z        PSCENC =         0.06690403
  Ewald energy   TEWEN  =      1584.43190266
  -Hartree energ DENC   =     -3272.78644214
  -exchange      EXHF   =         0.00000000
  -V(xc)+E(xc)   XCENC  =       120.80035583
  PAW double counting   =     24359.95300263   -24355.29977053
  entropy T*S    EENTRO =        -0.00000000
  eigenvalues    EBANDS =      -507.47393731
  atomic energy  EATOM  =      2023.81978844
  Solvation  Ediel_sol  =         0.00000000
  ---------------------------------------------------
  free energy    TOTEN  =       -46.48819640 eV

  energy without entropy =      -46.48819640  energy(sigma->0) =      -46.48819640


--------------------------------------------------------------------------------------------------------




--------------------------------------- Iteration      1(  26)  ---------------------------------------


    POTLOK:  cpu time   45.9234: real time   45.9809
    SETDIJ:  cpu time    0.0649: real time    0.0649
     EDDAV:  cpu time   21.2744: real time   21.3063
       DOS:  cpu time    0.0151: real time    0.0151
    CHARGE:  cpu time   24.5217: real time   24.5450
    MIXING:  cpu time    2.3192: real time    2.3222
    --------------------------------------------
      LOOP:  cpu time   94.1185: real time   94.2344

 eigenvalue-minimisations  :    32
 total energy-change (2. order) :-0.4428488E-05  (-0.1629747E-08)
 number of electron      32.0000000 magnetization 
 augmentation part        0.1206699 magnetization 

 Broyden mixing:
  rms(total) = 0.43121E-04    rms(broyden)= 0.43121E-04
  rms(prec ) = 0.43391E-04
  weight for this iteration     100.00

 eigenvalues of (default mixing * dielectric matrix)
  average eigenvalue GAMMA=   2.1331
  9.4976  6.4251  4.4916  2.9499  2.5892  2.5342  2.5342  1.4432  1.4432  0.9868
  0.9868  1.0061  1.0061  0.9740  0.9740  0.9432  0.7861  0.7861  0.8367  0.8367
  0.7641

 Free energy of the ion-electron system (eV)
  ---------------------------------------------------
  alpha Z        PSCENC =         0.06690403
  Ewald energy   TEWEN  =      1584.43190266
  -Hartree energ DENC   =     -3272.78536230
  -exchange      EXHF   =         0.00000000
  -V(xc)+E(xc)   XCENC  =       120.80029037
  PAW double counting   =     24360.19722807   -24355.54397576
  entropy T*S    EENTRO =        -0.00000000
  eigenvalues    EBANDS =      -507.47497634
  atomic energy  EATOM  =      2023.81978844
  Solvation  Ediel_sol  =         0.00000000
  ---------------------------------------------------
  free energy    TOTEN  =       -46.48820083 eV

  energy without entropy =      -46.48820083  energy(sigma->0) =      -46.48820083


--------------------------------------------------------------------------------------------------------




--------------------------------------- Iteration      1(  27)  ---------------------------------------


    POTLOK:  cpu time   46.0680: real time   46.1263
    SETDIJ:  cpu time    0.0519: real time    0.0519
     EDDAV:  cpu time   21.3090: real time   21.3407
       DOS:  cpu time    0.0002: real time    0.0002
    CHARGE:  cpu time   24.5816: real time   24.6063
    MIXING:  cpu time    2.4595: real time    2.4627
    --------------------------------------------
      LOOP:  cpu time   94.4702: real time   94.5880

 eigenvalue-minimisations  :    32
 total energy-change (2. order) :-0.8319744E-06  (-0.5071179E-09)
 number of electron      32.0000000 magnetization 
 augmentation part        0.1206695 magnetization 

 Broyden mixing:
  rms(total) = 0.22409E-04    rms(broyden)= 0.22409E-04
  rms(prec ) = 0.22622E-04
  weight for this iteration     100.00

 eigenvalues of (default mixing * dielectric matrix)
  average eigenvalue GAMMA=   2.1179
  9.4768  6.5482  4.5154  2.9110  2.9110  2.3985  2.3985  1.4443  1.4443  0.9839
  0.9839  1.1581  1.1581  1.1823  0.9954  0.9954  0.7832  0.7832  0.8669  0.8669
  0.8943  0.8943

 Free energy of the ion-electron system (eV)
  ---------------------------------------------------
  alpha Z        PSCENC =         0.06690403
  Ewald energy   TEWEN  =      1584.43190266
  -Hartree energ DENC   =     -3272.78580448
  -exchange      EXHF   =         0.00000000
  -V(xc)+E(xc)   XCENC  =       120.80031443
  PAW double counting   =     24360.08881080   -24355.43556639
  entropy T*S    EENTRO =        -0.00000000
  eigenvalues    EBANDS =      -507.47455114
  atomic energy  EATOM  =      2023.81978844
  Solvation  Ediel_sol  =         0.00000000
  ---------------------------------------------------
  free energy    TOTEN  =       -46.48820166 eV

  energy without entropy =      -46.48820166  energy(sigma->0) =      -46.48820166


--------------------------------------------------------------------------------------------------------




--------------------------------------- Iteration      1(  28)  ---------------------------------------


    POTLOK:  cpu time   45.9039: real time   45.9616
    SETDIJ:  cpu time    0.0570: real time    0.0570
     EDDAV:  cpu time   21.3494: real time   21.3825
       DOS:  cpu time    0.0111: real time    0.0111
    CHARGE:  cpu time   24.6690: real time   24.6927
    MIXING:  cpu time    2.1738: real time    2.1770
    --------------------------------------------
      LOOP:  cpu time   94.1641: real time   94.2818

 eigenvalue-minimisations  :    32
 total energy-change (2. order) :-0.6968376E-06  (-0.4445013E-09)
 number of electron      32.0000000 magnetization 
 augmentation part        0.1206687 magnetization 

 Broyden mixing:
  rms(total) = 0.55077E-05    rms(broyden)= 0.55077E-05
  rms(prec ) = 0.57370E-05
  weight for this iteration     100.00

 eigenvalues of (default mixing * dielectric matrix)
  average eigenvalue GAMMA=   2.1230
  9.5733  6.7457  4.7595  3.2946  2.5637  2.4407  2.1396  2.1396  1.3386  1.3386
  0.9853  0.9853  1.2842  1.2842  0.9919  0.9919  0.7834  0.7834  0.8576  0.8576
  0.9655  0.9100  0.8140

 Free energy of the ion-electron system (eV)
  ---------------------------------------------------
  alpha Z        PSCENC =         0.06690403
  Ewald energy   TEWEN  =      1584.43190266
  -Hartree energ DENC   =     -3272.78607990
  -exchange      EXHF   =         0.00000000
  -V(xc)+E(xc)   XCENC  =       120.80033182
  PAW double counting   =     24360.10666148   -24355.45342249
  entropy T*S    EENTRO =        -0.00000000
  eigenvalues    EBANDS =      -507.47428840
  atomic energy  EATOM  =      2023.81978844
  Solvation  Ediel_sol  =         0.00000000
  ---------------------------------------------------
  free energy    TOTEN  =       -46.48820236 eV

  energy without entropy =      -46.48820236  energy(sigma->0) =      -46.48820236


--------------------------------------------------------------------------------------------------------




--------------------------------------- Iteration      1(  29)  ---------------------------------------


    POTLOK:  cpu time   46.0650: real time   46.1245
    SETDIJ:  cpu time    0.0602: real time    0.0602
     EDDAV:  cpu time   21.2799: real time   21.3122
       DOS:  cpu time    0.0094: real time    0.0094
    CHARGE:  cpu time   24.5900: real time   24.6130
    MIXING:  cpu time    2.3318: real time    2.3352
    --------------------------------------------
      LOOP:  cpu time   94.3362: real time   94.4545

 eigenvalue-minimisations  :    32
 total energy-change (2. order) :-0.4741696E-06  (-0.5835439E-09)
 number of electron      32.0000000 magnetization 
 augmentation part        0.1206687 magnetization 

 Broyden mixing:
  rms(total) = 0.40289E-05    rms(broyden)= 0.40289E-05
  rms(prec ) = 0.41827E-05
  weight for this iteration     100.00

 eigenvalues of (default mixing * dielectric matrix)
  average eigenvalue GAMMA=   2.1442
  9.6780  7.0639  5.1050  3.7716  2.6051  2.6051  2.2714  2.2714  1.4213  1.4213
  0.9845  0.9845  1.1015  1.1015  1.0049  1.0049  1.0080  1.0080  0.7834  0.7834
  0.9508  0.8550  0.8550  0.8206

 Free energy of the ion-electron system (eV)
  ---------------------------------------------------
  alpha Z        PSCENC =         0.06690403
  Ewald energy   TEWEN  =      1584.43190266
  -Hartree energ DENC   =     -3272.78615829
  -exchange      EXHF   =         0.00000000
  -V(xc)+E(xc)   XCENC  =       120.80033361
  PAW double counting   =     24360.10789586   -24355.45465793
  entropy T*S    EENTRO =        -0.00000000
  eigenvalues    EBANDS =      -507.47421121
  atomic energy  EATOM  =      2023.81978844
  Solvation  Ediel_sol  =         0.00000000
  ---------------------------------------------------
  free energy    TOTEN  =       -46.48820283 eV

  energy without entropy =      -46.48820283  energy(sigma->0) =      -46.48820283


--------------------------------------------------------------------------------------------------------




--------------------------------------- Iteration      1(  30)  ---------------------------------------


    POTLOK:  cpu time   46.3106: real time   46.3681
    SETDIJ:  cpu time    0.0623: real time    0.0624
     EDDAV:  cpu time   21.2707: real time   21.3033
       DOS:  cpu time    0.0124: real time    0.0124
    CHARGE:  cpu time   24.3625: real time   24.3859
    MIXING:  cpu time    2.8140: real time    2.8178
    --------------------------------------------
      LOOP:  cpu time   94.8326: real time   94.9498

 eigenvalue-minimisations  :    32
 total energy-change (2. order) :-0.2847755E-06  (-0.8623573E-09)
 number of electron      32.0000000 magnetization 
 augmentation part        0.1206685 magnetization 

 Broyden mixing:
  rms(total) = 0.13152E-04    rms(broyden)= 0.13152E-04
  rms(prec ) = 0.13196E-04
  weight for this iteration     100.00

 eigenvalues of (default mixing * dielectric matrix)
  average eigenvalue GAMMA=   2.1207
  9.7068  7.1089  5.1675  3.7247  2.6266  2.6266  2.3719  1.7637  1.4926  1.4926
  1.4692  1.4692  0.9856  0.9856  1.1177  1.1177  0.9965  0.9965  0.9075  0.8742
  0.8742  0.7814  0.7814  0.7899  0.7899

 Free energy of the ion-electron system (eV)
  ---------------------------------------------------
  alpha Z        PSCENC =         0.06690403
  Ewald energy   TEWEN  =      1584.43190266
  -Hartree energ DENC   =     -3272.78612848
  -exchange      EXHF   =         0.00000000
  -V(xc)+E(xc)   XCENC  =       120.80033242
  PAW double counting   =     24360.09588036   -24355.44264229
  entropy T*S    EENTRO =        -0.00000000
  eigenvalues    EBANDS =      -507.47424026
  atomic energy  EATOM  =      2023.81978844
  Solvation  Ediel_sol  =         0.00000000
  ---------------------------------------------------
  free energy    TOTEN  =       -46.48820312 eV

  energy without entropy =      -46.48820312  energy(sigma->0) =      -46.48820312


--------------------------------------------------------------------------------------------------------




--------------------------------------- Iteration      1(  31)  ---------------------------------------


    POTLOK:  cpu time   46.2925: real time   46.3496
    SETDIJ:  cpu time    0.0980: real time    0.0980
     EDDAV:  cpu time   21.2833: real time   21.3151
       DOS:  cpu time    0.0093: real time    0.0094
    --------------------------------------------
      LOOP:  cpu time   67.6830: real time   67.7721

 eigenvalue-minimisations  :    32
 total energy-change (2. order) :-0.9197356E-07  (-0.8024976E-09)
 number of electron      32.0000000 magnetization 
 augmentation part        0.1206685 magnetization 

 Free energy of the ion-electron system (eV)
  ---------------------------------------------------
  alpha Z        PSCENC =         0.06690403
  Ewald energy   TEWEN  =      1584.43190266
  -Hartree energ DENC   =     -3272.78602293
  -exchange      EXHF   =         0.00000000
  -V(xc)+E(xc)   XCENC  =       120.80032553
  PAW double counting   =     24360.11262071   -24355.45938064
  entropy T*S    EENTRO =        -0.00000000
  eigenvalues    EBANDS =      -507.47434100
  atomic energy  EATOM  =      2023.81978844
  Solvation  Ediel_sol  =         0.00000000
  ---------------------------------------------------
  free energy    TOTEN  =       -46.48820321 eV

  energy without entropy =      -46.48820321  energy(sigma->0) =      -46.48820321


--------------------------------------------------------------------------------------------------------




 average (electrostatic) potential at core
  the test charge radii are     0.5770  0.5955
  (the norm of the test charge is              1.0000)
       1 -90.8684       2 -90.8684       3-121.6758       4-121.6826       5-121.6758
       6-121.6826
 
 
 
 E-fermi :  -8.9553     XC(G=0):  -0.0450     alpha+bet : -0.0126


 k-point     1 :       0.0000    0.0000    0.0000
  band No.  band energies     occupation 
      1     -29.0773      2.00000
      2     -29.0772      2.00000
      3     -28.0700      2.00000
      4     -28.0699      2.00000
      5     -13.7934      2.00000
      6     -13.7868      2.00000
      7     -12.6367      2.00000
      8     -12.6274      2.00000
      9     -12.6245      2.00000
     10     -12.6245      2.00000
     11     -12.6241      2.00000
     12     -12.6241      2.00000
     13      -9.0262      2.00000
     14      -9.0262      2.00000
     15      -9.0244      2.00000
     16      -9.0244      2.00000
     17      -1.0253      0.00000
     18      -0.8512      0.00000
     19      -0.4374      0.00000
     20      -0.4372      0.00000


--------------------------------------------------------------------------------------------------------


 soft charge-density along one line, spin component            1
         0         1         2         3         4         5         6         7         8         9
 total charge-density along one line
 
 pseudopotential strength for first ion, spin component:            1
 12.905  21.721  -0.000   0.000  -0.000  -0.000   0.000   0.000
 21.721  36.557  -0.000   0.000   0.000  -0.000   0.000   0.000
 -0.000  -0.000  -3.243  -0.000   0.000  -5.820  -0.000   0.000
  0.000   0.000  -0.000  -3.246   0.000  -0.000  -5.823   0.000
 -0.000   0.000   0.000   0.000  -3.246   0.000   0.000  -5.823
 -0.000  -0.000  -5.820  -0.000   0.000 -10.422  -0.000   0.000
  0.000   0.000  -0.000  -5.823   0.000  -0.000 -10.425   0.000
  0.000   0.000   0.000   0.000  -5.823   0.000   0.000 -10.425
 total augmentation occupancy for first ion, spin component:            1
 10.228  -4.054  -0.001   0.000   0.000   0.000   0.000   0.000
 -4.054   1.749   0.001  -0.000  -0.000  -0.000   0.000  -0.000
 -0.001   0.001  15.629  -0.000   0.000  -6.282   0.000  -0.000
  0.000  -0.000  -0.000   3.585   0.000  -0.000  -0.999   0.000
  0.000  -0.000   0.000   0.000   3.585   0.000   0.000  -0.999
  0.000  -0.000  -6.282  -0.000   0.000   2.578   0.000  -0.000
  0.000   0.000   0.000  -0.999   0.000   0.000   0.278   0.000
  0.000  -0.000  -0.000   0.000  -0.999  -0.000   0.000   0.278


------------------------ aborting loop because EDIFF is reached ----------------------------------------



 DIPCOR: dipole corrections for dipol
 direction  1 min pos   555, direction  2 min pos   627, direction  3 min pos   591,
 dipolmoment           0.000010      0.000004      0.000008 electrons x Angstroem
 Tr[quadrupol]        17.238376

 energy correction for charged system         0.000000 eV
 dipol+quadrupol energy correction            0.000000 eV
 added-field ion interaction          0.000000 eV  (added to PSCEN)

 
  *************** adding dipol energy to TOTEN NOW **************** 
    CHARGE:  cpu time   24.6305: real time   24.6537
    FORLOC:  cpu time    2.3321: real time    2.3343
    FORNL :  cpu time    1.5503: real time    1.5529
    STRESS:  cpu time    9.5296: real time    9.5443
    FORCOR:  cpu time   46.1001: real time   46.1561
    FORHAR:  cpu time   13.4573: real time   13.4740
    MIXING:  cpu time    2.4486: real time    2.4523
    OFIELD:  cpu time    0.0000: real time    0.0000

  FORCE on cell =-STRESS in cart. coord.  units (eV):
  Direction    XX          YY          ZZ          XY          YZ          ZX
  --------------------------------------------------------------------------------------
  Alpha Z     0.06690     0.06690     0.06690
  Ewald    -203.46870  1991.37013  -203.46870    -0.00000     0.00000    -0.00000
  Hartree   646.30521  1980.17554   646.30521    -0.00000     0.00000     0.00000
  E(xc)    -155.64614  -151.73427  -155.64614    -0.00000     0.00000    -0.00000
  Local   -1143.18782 -4533.73277 -1143.18782    -0.00000     0.00000     0.00000
  n-local   -50.95477   -37.74557   -50.95477     0.00000    -0.00000     0.00000
  augment     2.43627     1.37583     2.43627     0.00000     0.00000     0.00000
  Kinetic   904.44073   750.29948   904.44073    -0.00000     0.00000     0.00000
  Fock        0.00000     0.00000     0.00000     0.00000     0.00000     0.00000
  -------------------------------------------------------------------------------------
  Total      -0.00831     0.07527    -0.00831     0.00000     0.00000     0.00000
  in kB      -0.00031     0.00281    -0.00031     0.00000     0.00000     0.00000
  external pressure =        0.00 kB  Pullay stress =        0.00 kB


 VOLUME and BASIS-vectors are now :
 -----------------------------------------------------------------------------
  energy-cutoff  :     2000.00
  volume of cell :    42875.00
      direct lattice vectors                 reciprocal lattice vectors
    35.000000000  0.000000000  0.000000000     0.028571429  0.000000000  0.000000000
     0.000000000 35.000000000  0.000000000     0.000000000  0.028571429  0.000000000
     0.000000000  0.000000000 35.000000000     0.000000000  0.000000000  0.028571429

  length of vectors
    35.000000000 35.000000000 35.000000000     0.028571429  0.028571429  0.028571429


 FORCES acting on ions
    electron-ion (+dipol)            ewald-force                    non-local-force                 convergence-correction
 -----------------------------------------------------------------------------------------------
   -.476E-15 0.191E+02 -.302E-06   -.397E-17 -.191E+02 -.111E-17   -.207E-24 -.237E-01 -.123E-24   -.771E-14 -.202E-04 -.358E-13
   -.747E-16 -.191E+02 -.311E-06   0.565E-17 0.191E+02 0.280E-17   0.436E-25 0.237E-01 0.905E-25   -.770E-14 0.202E-04 -.387E-14
   -.506E-15 -.242E+03 -.360E-07   0.103E-16 0.304E+03 -.522E-17   -.271E-24 -.621E+02 0.000E+00   -.154E-13 0.356E-04 -.486E-13
   0.229E-14 0.305E+03 -.119E-06   0.200E-16 -.367E+03 0.295E-17   0.515E-25 0.620E+02 0.000E+00   -.111E-13 -.419E-04 -.557E-13
   0.305E-14 0.242E+03 -.117E-06   -.176E-16 -.304E+03 -.140E-17   0.297E-24 0.621E+02 -.207E-24   -.118E-13 -.356E-04 0.252E-15
   0.870E-15 -.305E+03 -.421E-07   -.105E-16 0.367E+03 -.832E-17   -.549E-25 -.620E+02 0.000E+00   -.123E-13 0.419E-04 -.106E-13
 -----------------------------------------------------------------------------------------------
   0.515E-14 0.354E-05 -.927E-06   0.390E-17 -.568E-13 -.103E-16   -.141E-24 -.426E-13 -.239E-24   -.660E-13 0.337E-13 -.154E-12
 
 
 POSITION                                       TOTAL-FORCE (eV/Angst)
 -----------------------------------------------------------------------------------
      0.00000      0.05699      0.00000        -0.000000      0.028933     -0.000000
      0.00000      7.09743      0.00000         0.000000     -0.028933      0.000000
      0.00000      1.22721      0.00000        -0.000000      0.001706     -0.000000
      0.00000     33.88677      0.00000        -0.000000     -0.031839     -0.000000
      0.00000      5.92721      0.00000        -0.000000     -0.001706      0.000000
      0.00000      8.26765      0.00000        -0.000000      0.031839      0.000000
 -----------------------------------------------------------------------------------
    total drift:                               -0.000000      0.000004     -0.000001


--------------------------------------------------------------------------------------------------------



  FREE ENERGIE OF THE ION-ELECTRON SYSTEM (eV)
  ---------------------------------------------------
  free  energy   TOTEN  =       -46.48820321 eV

  energy  without entropy=      -46.48820321  energy(sigma->0) =      -46.48820321
 


--------------------------------------------------------------------------------------------------------


    POTLOK:  cpu time   46.3088: real time   46.3670


--------------------------------------------------------------------------------------------------------


 writing wavefunctions
     LOOP+:  cpu time 3880.5384: real time 3884.9902
    4ORBIT:  cpu time    0.0000: real time    0.0000

 total amount of memory used by VASP MPI-rank0  7276107. kBytes
=======================================================================

   base      :      30000. kBytes
   nonl-proj :     121908. kBytes
   fftplans  :    2602168. kBytes
   grid      :    4434952. kBytes
   one-center:          1. kBytes
   wavefun   :      87078. kBytes
 
  
  
 General timing and accounting informations for this job:
 ========================================================
  
                  Total CPU time used (sec):     4954.236
                            User time (sec):     4718.261
                          System time (sec):      235.975
                         Elapsed time (sec):     4959.998
  
                   Maximum memory used (kb):     9848688.
                   Average memory used (kb):           0.
  
                          Minor page faults:    225549105
                          Major page faults:          202
                 Voluntary context switches:         2254
