 vasp.6.1.2 22Jul20 (build Jan  6 2021 09:55:43) gamma-only                      
 executed on             LinuxPGI date 2021.04.13  17:24:55
 running on   16 total cores
 distrk:  each k-point on   16 cores,    1 groups
 distr:  one band on NCORE=   8 cores,    2 groups


--------------------------------------------------------------------------------------------------------


 INCAR:
 POTCAR:    PAW_PBE C_h 06Feb2004                 
 POTCAR:    PAW_PBE O_h 06Feb2004                 
 POTCAR:    PAW_PBE C_h 06Feb2004                 
   VRHFIN =C: s2p2                                                                                  
   LEXCH  = PE                                                                                      
   EATOM  =   147.1560 eV,   10.8157 Ry                                                             
                                                                                                    
   TITEL  = PAW_PBE C_h 06Feb2004                                                                   
   LULTRA =        F    use ultrasoft PP ?                                                          
   IUNSCR =        1    unscreen: 0-lin 1-nonlin 2-no                                               
   RPACOR =    0.800    partial core radius                                                         
   POMASS =   12.011; ZVAL   =    4.000    mass and valenz                                          
   RCORE  =    1.100    outmost cutoff radius                                                       
   RWIGS  =    1.630; RWIGS  =    0.863    wigner-seitz radius (au A)                               
   ENMAX  =  700.000; ENMIN  =  500.000 eV                                                          
   ICORE  =        2    local potential                                                             
   LCOR   =        T    correct aug charges                                                         
   LPAW   =        T    paw PP                                                                      
   EAUG   =  946.768                                                                                
   DEXC   =    0.000                                                                                
   RMAX   =    1.128    core radius for proj-oper                                                   
   RAUG   =    1.300    factor for augmentation sphere                                              
   RDEP   =    1.162    radius for radial grids                                                     
   RDEPT  =    1.088    core radius for aug-charge                                                  
                                                                                                    
   Atomic configuration                                                                             
    4 entries                                                                                       
     n  l   j            E        occ.                                                              
     1  0  0.50      -273.3789   2.0000                                                             
     2  0  0.50       -13.7508   2.0000                                                             
     2  1  0.50        -5.2854   2.0000                                                             
     3  2  1.50        -5.4423   0.0000                                                             
   Description                                                                                      
     l       E           TYP  RCUT    TYP  RCUT                                                     
     0    -13.7508458     23  1.100                                                                 
     0     -8.2022199     23  1.100                                                                 
     1     -5.2854383     23  1.100                                                                 
     1      1.1560700     23  1.100                                                                 
     2     -5.4423304      7  1.100                                                                 
  local pseudopotential read in
  partial core-charges read in
  partial kinetic energy density read in
  atomic valenz-charges read in
  non local Contribution for L=            0  read in
    real space projection operators read in
  non local Contribution for L=            0  read in
    real space projection operators read in
  non local Contribution for L=            1  read in
    real space projection operators read in
  non local Contribution for L=            1  read in
    real space projection operators read in
    PAW grid and wavefunctions read in
 
   number of l-projection  operators is LMAX  =            4
   number of lm-projection operators is LMMAX =            8
 
 POTCAR:    PAW_PBE O_h 06Feb2004                 
   VRHFIN =O: s2p4                                                                                  
   LEXCH  = PE                                                                                      
   EATOM  =   432.3788 eV,   31.7789 Ry                                                             
                                                                                                    
   TITEL  = PAW_PBE O_h 06Feb2004                                                                   
   LULTRA =        F    use ultrasoft PP ?                                                          
   IUNSCR =        1    unscreen: 0-lin 1-nonlin 2-no                                               
   RPACOR =    0.800    partial core radius                                                         
   POMASS =   16.000; ZVAL   =    6.000    mass and valenz                                          
   RCORE  =    1.100    outmost cutoff radius                                                       
   RWIGS  =    1.400; RWIGS  =    0.741    wigner-seitz radius (au A)                               
   ENMAX  =  700.000; ENMIN  =  500.000 eV                                                          
   ICORE  =        2    local potential                                                             
   LCOR   =        T    correct aug charges                                                         
   LPAW   =        T    paw PP                                                                      
   EAUG   =  888.804                                                                                
   DEXC   =    0.000                                                                                
   RMAX   =    1.128    core radius for proj-oper                                                   
   RAUG   =    1.300    factor for augmentation sphere                                              
   RDEP   =    1.125    radius for radial grids                                                     
   RDEPT  =    1.088    core radius for aug-charge                                                  
                                                                                                    
   Atomic configuration                                                                             
    4 entries                                                                                       
     n  l   j            E        occ.                                                              
     1  0  0.50      -514.6923   2.0000                                                             
     2  0  0.50       -23.9615   2.0000                                                             
     2  1  0.50        -9.0305   4.0000                                                             
     3  2  1.50        -9.5241   0.0000                                                             
   Description                                                                                      
     l       E           TYP  RCUT    TYP  RCUT                                                     
     0    -23.9615319     23  1.100                                                                 
     0    -25.3221145     23  1.100                                                                 
     1     -9.0304911     23  1.100                                                                 
     1     -5.4802209     23  1.100                                                                 
     2     -9.5240782      7  1.100                                                                 
  local pseudopotential read in
  partial core-charges read in
  partial kinetic energy density read in
  atomic valenz-charges read in
  non local Contribution for L=            0  read in
    real space projection operators read in
  non local Contribution for L=            0  read in
    real space projection operators read in
  non local Contribution for L=            1  read in
    real space projection operators read in
  non local Contribution for L=            1  read in
    real space projection operators read in
    PAW grid and wavefunctions read in
 
   number of l-projection  operators is LMAX  =            4
   number of lm-projection operators is LMMAX =            8
 
  PAW_PBE C_h 06Feb2004                 :
 energy of atom  1       EATOM= -147.1560
 kinetic energy error for atom=    0.0004 (will be added to EATOM!!)
  PAW_PBE O_h 06Feb2004                 :
 energy of atom  2       EATOM= -432.3788
 kinetic energy error for atom=    0.0016 (will be added to EATOM!!)
 
 
 POSCAR:  C  O
  positions in cartesian coordinates
  No initial velocities read in
 exchange correlation table for  LEXCH =        8
   RHO(1)=    0.500       N(1)  =     2000
   RHO(2)=  100.500       N(2)  =     4000
 


--------------------------------------------------------------------------------------------------------


 ion  position               nearest neighbor table
   1  0.000  0.111  0.000-   2 1.17   3 1.17
   2  0.000  0.078  0.000-   1 1.17
   3  0.000  0.145  0.000-   1 1.17
 
  LATTYP: Found a simple cubic cell.
 ALAT       =    35.0000000000
  
  Lattice vectors:
  
 A1 = (  35.0000000000,   0.0000000000,   0.0000000000)
 A2 = (   0.0000000000,  35.0000000000,   0.0000000000)
 A3 = (   0.0000000000,   0.0000000000,  35.0000000000)


Analysis of symmetry for initial positions (statically):
=====================================================================
 Subroutine PRICEL returns:
 Original cell was already a primitive cell.
 

 Routine SETGRP: Setting up the symmetry group for a 
 simple cubic supercell.


 Subroutine GETGRP returns: Found 16 space group operations
 (whereof  8 operations were pure point group operations)
 out of a pool of 48 trial point group operations.


The static configuration has the point symmetry C_4v.
 The point group associated with its full space group is D_4h.


Analysis of symmetry for dynamics (positions and initial velocities):
=====================================================================
 Subroutine PRICEL returns:
 Original cell was already a primitive cell.
 

 Routine SETGRP: Setting up the symmetry group for a 
 simple cubic supercell.


 Subroutine GETGRP returns: Found 16 space group operations
 (whereof  8 operations were pure point group operations)
 out of a pool of 48 trial point group operations.


The dynamic configuration has the point symmetry C_4v.
 The point group associated with its full space group is D_4h.


 Subroutine INISYM returns: Found 16 space group operations
 (whereof  8 operations are pure point group operations),
 and found     1 'primitive' translations


----------------------------------------------------------------------------------------

                                     Primitive cell                                     

  volume of cell :   42875.0000

  direct lattice vectors                    reciprocal lattice vectors
    35.000000000  0.000000000  0.000000000     0.028571429  0.000000000  0.000000000
     0.000000000 35.000000000  0.000000000     0.000000000  0.028571429  0.000000000
     0.000000000  0.000000000 35.000000000     0.000000000  0.000000000  0.028571429

  length of vectors
    35.000000000 35.000000000 35.000000000     0.028571429  0.028571429  0.028571429

  position of ions in fractional coordinates (direct lattice)
     0.000000000  0.111355029  0.000000000
     0.000000000  0.077920171  0.000000000
     0.000000000  0.144789886  0.000000000

  ion indices of the primitive-cell ions
   primitive index   ion index
                 1           1
                 2           2
                 3           3

----------------------------------------------------------------------------------------

 
 
 KPOINTS: automatic mesh                          

Automatic generation of k-mesh.
Space group operators:
 irot       det(A)        alpha          n_x          n_y          n_z        tau_x        tau_y        tau_z
    1     1.000000     0.000000     1.000000     0.000000     0.000000     0.000000     0.000000     0.000000
    2     1.000000    90.000000     0.000000     1.000000     0.000000     0.000000     0.000000     0.000000
    3    -1.000000   180.000000     0.000000     0.000000     1.000000     0.000000     0.000000     0.000000
    4    -1.000000   180.000000     0.707107     0.000000     0.707107     0.000000     0.000000     0.000000
    5    -1.000000   180.000000     1.000000     0.000000     0.000000     0.000000     0.000000     0.000000
    6     1.000000    90.000000     0.000000    -1.000000     0.000000     0.000000     0.000000     0.000000
    7     1.000000   180.000000     0.000000     1.000000     0.000000     0.000000     0.000000     0.000000
    8    -1.000000   180.000000     0.707107     0.000000    -0.707107     0.000000     0.000000     0.000000
    9    -1.000000     0.000000     1.000000     0.000000     0.000000     0.000000     0.222710     0.000000
   10    -1.000000    90.000000     0.000000     1.000000     0.000000     0.000000     0.222710     0.000000
   11     1.000000   180.000000     0.000000     0.000000     1.000000     0.000000     0.222710     0.000000
   12     1.000000   180.000000     0.707107     0.000000     0.707107     0.000000     0.222710     0.000000
   13     1.000000   180.000000     1.000000     0.000000     0.000000     0.000000     0.222710     0.000000
   14    -1.000000    90.000000     0.000000    -1.000000     0.000000     0.000000     0.222710     0.000000
   15    -1.000000   180.000000     0.000000     1.000000     0.000000     0.000000     0.222710     0.000000
   16     1.000000   180.000000     0.707107     0.000000    -0.707107     0.000000     0.222710     0.000000
 
 Subroutine IBZKPT returns following result:
 ===========================================
 
 Found      1 irreducible k-points:
 
 Following reciprocal coordinates:
            Coordinates               Weight
  0.000000  0.000000  0.000000      1.000000
 
 Following cartesian coordinates:
            Coordinates               Weight
  0.000000  0.000000  0.000000      1.000000
 


--------------------------------------------------------------------------------------------------------




 Dimension of arrays:
   k-points           NKPTS =      1   k-points in BZ     NKDIM =      1   number of bands    NBANDS=     12
   number of dos      NEDOS =    301   number of ions     NIONS =      3
   non local maximal  LDIM  =      4   non local SUM 2l+1 LMDIM =      8
   total plane-waves  NPLWV = ******
   max r-space proj   IRMAX =      1   max aug-charges    IRDMAX=  23028
   dimension x,y,z NGX =   512 NGY =  512 NGZ =  512
   dimension x,y,z NGXF=  1024 NGYF= 1024 NGZF= 1024
   support grid    NGXF=  1024 NGYF= 1024 NGZF= 1024
   ions per type =               1   2
   NGX,Y,Z   is equivalent  to a cutoff of  24.32, 24.32, 24.32 a.u.
   NGXF,Y,Z  is equivalent  to a cutoff of  48.64, 48.64, 48.64 a.u.

 SYSTEM =  C                                       
 POSCAR =   C  O                                   

 Startparameter for this run:
   NWRITE =      2    write-flag & timer
   PREC   = acc       normal or accurate (medium, high low for compatibility)
   ISTART =      0    job   : 0-new  1-cont  2-samecut
   ICHARG =      2    charge: 1-file 2-atom 10-const
   ISPIN  =      1    spin polarized calculation?
   LNONCOLLINEAR =      F non collinear calculations
   LSORBIT =      F    spin-orbit coupling
   INIWAV =      1    electr: 0-lowe 1-rand  2-diag
   LASPH  =      T    aspherical Exc in radial PAW
   METAGGA=      F    non-selfconsistent MetaGGA calc.

 Electronic Relaxation 1
   ENCUT  = 2000.0 eV 147.00 Ry   12.12 a.u. 127.63127.63127.63*2*pi/ulx,y,z
   ENINI  = 2000.0     initial cutoff
   ENAUG  =  946.8 eV  augmentation charge cutoff
   NELM   =     60;   NELMIN=  2; NELMDL= -5     # of ELM steps 
   EDIFF  = 0.1E-06   stopping-criterion for ELM
   LREAL  =      F    real-space projection
   NLSPLINE    = F    spline interpolate recip. space projectors
   LCOMPAT=      F    compatible to vasp.4.4
   GGA_COMPAT  = T    GGA compatible to vasp.4.4-vasp.4.6
   LMAXPAW     = -100 max onsite density
   LMAXMIX     =    2 max onsite mixed and CHGCAR
   VOSKOWN=      0    Vosko Wilk Nusair interpolation
   ROPT   =    0.00000   0.00000
 Ionic relaxation
   EDIFFG = 0.1E-05   stopping-criterion for IOM
   NSW    =      0    number of steps for IOM
   NBLOCK =      1;   KBLOCK =      1    inner block; outer block 
   IBRION =     -1    ionic relax: 0-MD 1-quasi-New 2-CG
   NFREE  =      0    steps in history (QN), initial steepest desc. (CG)
   ISIF   =      2    stress and relaxation
   IWAVPR =     10    prediction:  0-non 1-charg 2-wave 3-comb
   ISYM   =      2    0-nonsym 1-usesym 2-fastsym
   LCORR  =      T    Harris-Foulkes like correction to forces

   POTIM  = 0.5000    time-step for ionic-motion
   TEIN   =    0.0    initial temperature
   TEBEG  =    0.0;   TEEND  =   0.0 temperature during run
   SMASS  =  -3.00    Nose mass-parameter (am)
   estimated Nose-frequenzy (Omega)   =  0.10E-29 period in steps = 0.13E+47 mass=  -0.280E-25a.u.
   SCALEE = 1.0000    scale energy and forces
   NPACO  =    256;   APACO  = 16.0  distance and # of slots for P.C.
   PSTRESS=    0.0 pullay stress

  Mass of Ions in am
   POMASS =  12.01 16.00
  Ionic Valenz
   ZVAL   =   4.00  6.00
  Atomic Wigner-Seitz radii
   RWIGS  =  -1.00 -1.00
  virtual crystal weights 
   VCA    =   1.00  1.00
   NELECT =      16.0000    total number of electrons
   NUPDOWN=      -1.0000    fix difference up-down

 DOS related values:
   EMIN   =  10.00;   EMAX   =-10.00  energy-range for DOS
   EFERMI =   0.00
   ISMEAR =     0;   SIGMA  =   0.01  broadening in eV -4-tet -1-fermi 0-gaus

 Electronic relaxation 2 (details)
   IALGO  =     38    algorithm
   LDIAG  =      T    sub-space diagonalisation (order eigenvalues)
   LSUBROT=      F    optimize rotation matrix (better conditioning)
   TURBO    =      0    0=normal 1=particle mesh
   IRESTART =      0    0=no restart 2=restart with 2 vectors
   NREBOOT  =      0    no. of reboots
   NMIN     =      0    reboot dimension
   EREF     =   0.00    reference energy to select bands
   IMIX   =      4    mixing-type and parameters
     AMIX     =   0.40;   BMIX     =  1.00
     AMIX_MAG =   1.60;   BMIX_MAG =  1.00
     AMIN     =   0.10
     WC   =   100.;   INIMIX=   1;  MIXPRE=   1;  MAXMIX= -45

 Intra band minimization:
   WEIMIN = 0.0000     energy-eigenvalue tresh-hold
   EBREAK =  0.21E-08  absolut break condition
   DEPER  =   0.30     relativ break condition  

   TIME   =   0.40     timestep for ELM

  volume/ion in A,a.u.               =   14291.67     96444.93
  Fermi-wavevector in a.u.,A,eV,Ry     =   0.117864  0.222730  0.189010  0.013892
  Thomas-Fermi vector in A             =   0.732055
 
 Write flags
   LWAVE        =      T    write WAVECAR
   LDOWNSAMPLE  =      F    k-point downsampling of WAVECAR
   LCHARG       =      T    write CHGCAR
   LVTOT        =      F    write LOCPOT, total local potential
   LVHAR        =      F    write LOCPOT, Hartree potential only
   LELF         =      F    write electronic localiz. function (ELF)
   LORBIT       =      0    0 simple, 1 ext, 2 COOP (PROOUT), +10 PAW based schemes


 Dipole corrections
   LMONO  =      F    monopole corrections only (constant potential shift)
   LDIPOL =      F    correct potential (dipole corrections)
   IDIPOL =      4    1-x, 2-y, 3-z, 4-all directions 
   EPSILON=  1.0000000 bulk dielectric constant

 Exchange correlation treatment:
   GGA     =    --    GGA type
   LEXCH   =     8    internal setting for exchange type
   VOSKOWN=      0    Vosko Wilk Nusair interpolation
   LHFCALC =     F    Hartree Fock is set to
   LHFONE  =     F    Hartree Fock one center treatment
   AEXX    =    0.0000 exact exchange contribution

 Linear response parameters
   LEPSILON=     F    determine dielectric tensor
   LRPA    =     F    only Hartree local field effects (RPA)
   LNABLA  =     F    use nabla operator in PAW spheres
   LVEL    =     F    velocity operator in full k-point grid
   LINTERFAST=   F  fast interpolation
   KINTER  =     0    interpolate to denser k-point grid
   CSHIFT  =0.1000    complex shift for real part using Kramers Kronig
   OMEGAMAX=  -1.0    maximum frequency
   DEG_THRESHOLD= 0.2000000E-02 threshold for treating states as degnerate
   RTIME   =   -0.100 relaxation time in fs
  (WPLASMAI=    0.000 imaginary part of plasma frequency in eV, 0.658/RTIME)
   DFIELD  = 0.0000000 0.0000000 0.0000000 field for delta impulse in time
 
 Orbital magnetization related:
   ORBITALMAG=     F  switch on orbital magnetization
   LCHIMAG   =     F  perturbation theory with respect to B field
   DQ        =  0.001000  dq finite difference perturbation B field
   LLRAUG    =     F  two centre corrections for induced B field



--------------------------------------------------------------------------------------------------------


 Static calculation
 charge density and potential will be updated during run
 non-spin polarized calculation
 Variant of blocked Davidson
 Davidson routine will perform the subspace rotation
 perform sub-space diagonalisation
    after iterative eigenvector-optimisation
 modified Broyden-mixing scheme, WC =      100.0
 initial mixing is a Kerker type mixing with AMIX =  0.4000 and BMIX =      1.0000
 Hartree-type preconditioning will be used
 using additional bands             4
 reciprocal scheme for non local part
 use partial core corrections
 calculate Harris-corrections to forces 
   (improved forces if not selfconsistent)
 use gradient corrections 
 use of overlap-Matrix (Vanderbilt PP)
 Gauss-broadening in eV      SIGMA  =   0.01


--------------------------------------------------------------------------------------------------------


  energy-cutoff  :     2000.00
  volume of cell :    42875.00
      direct lattice vectors                 reciprocal lattice vectors
    35.000000000  0.000000000  0.000000000     0.028571429  0.000000000  0.000000000
     0.000000000 35.000000000  0.000000000     0.000000000  0.028571429  0.000000000
     0.000000000  0.000000000 35.000000000     0.000000000  0.000000000  0.028571429

  length of vectors
    35.000000000 35.000000000 35.000000000     0.028571429  0.028571429  0.028571429


 
 k-points in units of 2pi/SCALE and weight: automatic mesh                          
   0.00000000  0.00000000  0.00000000       1.000
 
 k-points in reciprocal lattice and weights: automatic mesh                          
   0.00000000  0.00000000  0.00000000       1.000
 
 position of ions in fractional coordinates (direct lattice) 
   0.00000000  0.11135503  0.00000000
   0.00000000  0.07792017  0.00000000
   0.00000000  0.14478989  0.00000000
 
 position of ions in cartesian coordinates  (Angst):
   0.00000000  3.89742600  0.00000000
   0.00000000  2.72720600  0.00000000
   0.00000000  5.06764600  0.00000000
 


--------------------------------------------------------------------------------------------------------


 use parallel FFT for orbitals z direction half grid
 k-point   1 :   0.0000 0.0000 0.0000  plane waves: 4353902

 maximum and minimum number of plane-waves per node :    544247   544233

 maximum number of plane-waves:   4353902
 maximum index in each direction: 
   IXMAX=  127   IYMAX=  127   IZMAX=  127
   IXMIN= -127   IYMIN= -127   IZMIN=    0


 parallel 3D FFT for wavefunctions:
    minimum data exchange during FFTs selected (reduces bandwidth)
 parallel 3D FFT for charge:
    minimum data exchange during FFTs selected (reduces bandwidth)


 total amount of memory used by VASP MPI-rank0  7215152. kBytes
=======================================================================

   base      :      30000. kBytes
   nonl-proj :      95785. kBytes
   fftplans  :    2602168. kBytes
   grid      :    4434952. kBytes
   one-center:          1. kBytes
   wavefun   :      52246. kBytes
 
     INWAV:  cpu time    0.0000: real time    0.0000
 Broyden mixing: mesh for mixing (old mesh)
   NGX =255   NGY =255   NGZ =255
  (NGX  =***   NGY  =***   NGZ  =***)
  gives a total of ****** points

 initial charge density was supplied:
 charge density of overlapping atoms calculated
 number of electron      16.0000000 magnetization 
 keeping initial charge density in first step


--------------------------------------------------------------------------------------------------------


 Maximum index for augmentation-charges          1255 (set IRDMAX)


--------------------------------------------------------------------------------------------------------


 First call to EWALD:  gamma=   0.051
 Maximum number of real-space cells 3x 3x 3
 Maximum number of reciprocal cells 3x 3x 3

    FEWALD:  cpu time    0.0006: real time    0.0006


--------------------------------------- Iteration      1(   1)  ---------------------------------------


    POTLOK:  cpu time   40.5852: real time   40.6300
    SETDIJ:  cpu time    0.0428: real time    0.0445
     EDDAV:  cpu time   20.3127: real time   20.3659
       DOS:  cpu time    0.0216: real time    0.0216
    --------------------------------------------
      LOOP:  cpu time   60.9622: real time   61.0619

 eigenvalue-minimisations  :    40
 total energy-change (2. order) : 0.1650443E+03  (-0.3166619E+03)
 number of electron      16.0000000 magnetization 
 augmentation part       16.0000000 magnetization 

 Free energy of the ion-electron system (eV)
  ---------------------------------------------------
  alpha Z        PSCENC =         0.01672601
  Ewald energy   TEWEN  =       662.91093246
  -Hartree energ DENC   =     -1465.59596558
  -exchange      EXHF   =         0.00000000
  -V(xc)+E(xc)   XCENC  =        58.24738009
  PAW double counting   =       808.61470481     -805.78774821
  entropy T*S    EENTRO =        -0.00000000
  eigenvalues    EBANDS =      -105.27163831
  atomic energy  EATOM  =      1011.90989422
  Solvation  Ediel_sol  =         0.00000000
  ---------------------------------------------------
  free energy    TOTEN  =       165.04428548 eV

  energy without entropy =      165.04428548  energy(sigma->0) =      165.04428548


--------------------------------------------------------------------------------------------------------




--------------------------------------- Iteration      1(   2)  ---------------------------------------


     EDDAV:  cpu time   17.1771: real time   17.2059
       DOS:  cpu time    0.0255: real time    0.0256
    --------------------------------------------
      LOOP:  cpu time   17.2027: real time   17.2315

 eigenvalue-minimisations  :    32
 total energy-change (2. order) :-0.6758117E+02  (-0.6685115E+02)
 number of electron      16.0000000 magnetization 
 augmentation part       16.0000000 magnetization 

 Free energy of the ion-electron system (eV)
  ---------------------------------------------------
  alpha Z        PSCENC =         0.01672601
  Ewald energy   TEWEN  =       662.91093246
  -Hartree energ DENC   =     -1465.59596558
  -exchange      EXHF   =         0.00000000
  -V(xc)+E(xc)   XCENC  =        58.24738009
  PAW double counting   =       808.61470481     -805.78774821
  entropy T*S    EENTRO =        -0.00000000
  eigenvalues    EBANDS =      -172.85280876
  atomic energy  EATOM  =      1011.90989422
  Solvation  Ediel_sol  =         0.00000000
  ---------------------------------------------------
  free energy    TOTEN  =        97.46311503 eV

  energy without entropy =       97.46311503  energy(sigma->0) =       97.46311503


--------------------------------------------------------------------------------------------------------




--------------------------------------- Iteration      1(   3)  ---------------------------------------


     EDDAV:  cpu time   18.8079: real time   18.8384
       DOS:  cpu time    0.0216: real time    0.0216
    --------------------------------------------
      LOOP:  cpu time   18.8295: real time   18.8600

 eigenvalue-minimisations  :    36
 total energy-change (2. order) :-0.6560116E+02  (-0.6543992E+02)
 number of electron      16.0000000 magnetization 
 augmentation part       16.0000000 magnetization 

 Free energy of the ion-electron system (eV)
  ---------------------------------------------------
  alpha Z        PSCENC =         0.01672601
  Ewald energy   TEWEN  =       662.91093246
  -Hartree energ DENC   =     -1465.59596558
  -exchange      EXHF   =         0.00000000
  -V(xc)+E(xc)   XCENC  =        58.24738009
  PAW double counting   =       808.61470481     -805.78774821
  entropy T*S    EENTRO =        -0.00000000
  eigenvalues    EBANDS =      -238.45396719
  atomic energy  EATOM  =      1011.90989422
  Solvation  Ediel_sol  =         0.00000000
  ---------------------------------------------------
  free energy    TOTEN  =        31.86195660 eV

  energy without entropy =       31.86195660  energy(sigma->0) =       31.86195660


--------------------------------------------------------------------------------------------------------




--------------------------------------- Iteration      1(   4)  ---------------------------------------


     EDDAV:  cpu time   23.4274: real time   23.4584
       DOS:  cpu time    0.0039: real time    0.0039
    --------------------------------------------
      LOOP:  cpu time   23.4312: real time   23.4622

 eigenvalue-minimisations  :    48
 total energy-change (2. order) :-0.3461594E+02  (-0.2986801E+02)
 number of electron      16.0000000 magnetization 
 augmentation part       16.0000000 magnetization 

 Free energy of the ion-electron system (eV)
  ---------------------------------------------------
  alpha Z        PSCENC =         0.01672601
  Ewald energy   TEWEN  =       662.91093246
  -Hartree energ DENC   =     -1465.59596558
  -exchange      EXHF   =         0.00000000
  -V(xc)+E(xc)   XCENC  =        58.24738009
  PAW double counting   =       808.61470481     -805.78774821
  entropy T*S    EENTRO =        -0.00000000
  eigenvalues    EBANDS =      -273.06990885
  atomic energy  EATOM  =      1011.90989422
  Solvation  Ediel_sol  =         0.00000000
  ---------------------------------------------------
  free energy    TOTEN  =        -2.75398505 eV

  energy without entropy =       -2.75398505  energy(sigma->0) =       -2.75398505


--------------------------------------------------------------------------------------------------------




--------------------------------------- Iteration      1(   5)  ---------------------------------------


     EDDAV:  cpu time   17.3018: real time   17.3301
       DOS:  cpu time    0.0075: real time    0.0075
    CHARGE:  cpu time   23.5862: real time   23.6054
    MIXING:  cpu time    0.9778: real time    0.9787
    --------------------------------------------
      LOOP:  cpu time   41.8733: real time   41.9218

 eigenvalue-minimisations  :    32
 total energy-change (2. order) :-0.1992749E+02  (-0.1992410E+02)
 number of electron      16.0000000 magnetization 
 augmentation part        0.0609162 magnetization 

 Broyden mixing:
  rms(total) = 0.35919E+01    rms(broyden)= 0.35919E+01
  rms(prec ) = 0.35949E+01
  weight for this iteration     100.00

 Free energy of the ion-electron system (eV)
  ---------------------------------------------------
  alpha Z        PSCENC =         0.01672601
  Ewald energy   TEWEN  =       662.91093246
  -Hartree energ DENC   =     -1465.59596558
  -exchange      EXHF   =         0.00000000
  -V(xc)+E(xc)   XCENC  =        58.24738009
  PAW double counting   =       808.61470481     -805.78774821
  entropy T*S    EENTRO =        -0.00000000
  eigenvalues    EBANDS =      -292.99740249
  atomic energy  EATOM  =      1011.90989422
  Solvation  Ediel_sol  =         0.00000000
  ---------------------------------------------------
  free energy    TOTEN  =       -22.68147870 eV

  energy without entropy =      -22.68147870  energy(sigma->0) =      -22.68147870


--------------------------------------------------------------------------------------------------------




--------------------------------------- Iteration      1(   6)  ---------------------------------------


    POTLOK:  cpu time   42.0906: real time   42.1341
    SETDIJ:  cpu time    0.0457: real time    0.0458
     EDDAV:  cpu time   17.2487: real time   17.2812
       DOS:  cpu time    0.0044: real time    0.0044
    CHARGE:  cpu time   23.2335: real time   23.2538
    MIXING:  cpu time    1.0190: real time    1.0266
    --------------------------------------------
      LOOP:  cpu time   83.6418: real time   83.7459

 eigenvalue-minimisations  :    32
 total energy-change (2. order) :-0.8534679E+00  (-0.2106871E+01)
 number of electron      16.0000000 magnetization 
 augmentation part        0.0718801 magnetization 

 Broyden mixing:
  rms(total) = 0.22675E+01    rms(broyden)= 0.22675E+01
  rms(prec ) = 0.22687E+01
  weight for this iteration     100.00

 eigenvalues of (default mixing * dielectric matrix)
  average eigenvalue GAMMA=   2.2985
  2.2985

 Free energy of the ion-electron system (eV)
  ---------------------------------------------------
  alpha Z        PSCENC =         0.01672601
  Ewald energy   TEWEN  =       662.91093246
  -Hartree energ DENC   =     -1482.90660666
  -exchange      EXHF   =         0.00000000
  -V(xc)+E(xc)   XCENC  =        59.26732067
  PAW double counting   =      3676.04221020    -3673.45569012
  entropy T*S    EENTRO =        -0.00000000
  eigenvalues    EBANDS =      -277.31973333
  atomic energy  EATOM  =      1011.90989422
  Solvation  Ediel_sol  =         0.00000000
  ---------------------------------------------------
  free energy    TOTEN  =       -23.53494656 eV

  energy without entropy =      -23.53494656  energy(sigma->0) =      -23.53494656


--------------------------------------------------------------------------------------------------------




--------------------------------------- Iteration      1(   7)  ---------------------------------------


    POTLOK:  cpu time   41.3688: real time   41.4102
    SETDIJ:  cpu time    0.0523: real time    0.0523
     EDDAV:  cpu time   18.7860: real time   18.8181
       DOS:  cpu time    0.0083: real time    0.0083
    CHARGE:  cpu time   23.4894: real time   23.5086
    MIXING:  cpu time    0.9989: real time    1.0013
    --------------------------------------------
      LOOP:  cpu time   84.7037: real time   84.7988

 eigenvalue-minimisations  :    36
 total energy-change (2. order) : 0.1363534E+00  (-0.4019557E+00)
 number of electron      16.0000000 magnetization 
 augmentation part        0.0391275 magnetization 

 Broyden mixing:
  rms(total) = 0.71963E+00    rms(broyden)= 0.71963E+00
  rms(prec ) = 0.72240E+00
  weight for this iteration     100.00

 eigenvalues of (default mixing * dielectric matrix)
  average eigenvalue GAMMA=   1.8791
  0.8576  2.9006

 Free energy of the ion-electron system (eV)
  ---------------------------------------------------
  alpha Z        PSCENC =         0.01672601
  Ewald energy   TEWEN  =       662.91093246
  -Hartree energ DENC   =     -1510.82025252
  -exchange      EXHF   =         0.00000000
  -V(xc)+E(xc)   XCENC  =        60.76989415
  PAW double counting   =     10843.88220608   -10841.69559955
  entropy T*S    EENTRO =        -0.00000000
  eigenvalues    EBANDS =      -250.37239395
  atomic energy  EATOM  =      1011.90989422
  Solvation  Ediel_sol  =         0.00000000
  ---------------------------------------------------
  free energy    TOTEN  =       -23.39859312 eV

  energy without entropy =      -23.39859312  energy(sigma->0) =      -23.39859312


--------------------------------------------------------------------------------------------------------




--------------------------------------- Iteration      1(   8)  ---------------------------------------


    POTLOK:  cpu time   41.2936: real time   41.3365
    SETDIJ:  cpu time    0.0464: real time    0.0464
     EDDAV:  cpu time   18.7631: real time   18.7918
       DOS:  cpu time    0.0125: real time    0.0125
    CHARGE:  cpu time   23.3920: real time   23.4116
    MIXING:  cpu time    1.0872: real time    1.0883
    --------------------------------------------
      LOOP:  cpu time   84.5947: real time   84.6872

 eigenvalue-minimisations  :    36
 total energy-change (2. order) : 0.1501904E+00  (-0.9134674E-01)
 number of electron      16.0000000 magnetization 
 augmentation part        0.0598559 magnetization 

 Broyden mixing:
  rms(total) = 0.27709E+00    rms(broyden)= 0.27709E+00
  rms(prec ) = 0.27757E+00
  weight for this iteration     100.00

 eigenvalues of (default mixing * dielectric matrix)
  average eigenvalue GAMMA=   1.4463
  2.4592  0.9398  0.9398

 Free energy of the ion-electron system (eV)
  ---------------------------------------------------
  alpha Z        PSCENC =         0.01672601
  Ewald energy   TEWEN  =       662.91093246
  -Hartree energ DENC   =     -1508.22212690
  -exchange      EXHF   =         0.00000000
  -V(xc)+E(xc)   XCENC  =        60.55535238
  PAW double counting   =     13497.38988207   -13495.11280661
  entropy T*S    EENTRO =        -0.00000000
  eigenvalues    EBANDS =      -252.69625636
  atomic energy  EATOM  =      1011.90989422
  Solvation  Ediel_sol  =         0.00000000
  ---------------------------------------------------
  free energy    TOTEN  =       -23.24840273 eV

  energy without entropy =      -23.24840273  energy(sigma->0) =      -23.24840273


--------------------------------------------------------------------------------------------------------




--------------------------------------- Iteration      1(   9)  ---------------------------------------


    POTLOK:  cpu time   41.3080: real time   41.3504
    SETDIJ:  cpu time    0.0528: real time    0.0528
     EDDAV:  cpu time   17.2029: real time   17.2281
       DOS:  cpu time    0.0120: real time    0.0120
    CHARGE:  cpu time   23.5287: real time   23.5474
    MIXING:  cpu time    1.0512: real time    1.0523
    --------------------------------------------
      LOOP:  cpu time   83.1557: real time   83.2431

 eigenvalue-minimisations  :    32
 total energy-change (2. order) : 0.1111846E-01  (-0.4218138E-02)
 number of electron      16.0000000 magnetization 
 augmentation part        0.0595689 magnetization 

 Broyden mixing:
  rms(total) = 0.89943E-01    rms(broyden)= 0.89943E-01
  rms(prec ) = 0.90176E-01
  weight for this iteration     100.00

 eigenvalues of (default mixing * dielectric matrix)
  average eigenvalue GAMMA=   1.2941
  2.5721  0.9525  0.9525  0.6994

 Free energy of the ion-electron system (eV)
  ---------------------------------------------------
  alpha Z        PSCENC =         0.01672601
  Ewald energy   TEWEN  =       662.91093246
  -Hartree energ DENC   =     -1505.23259167
  -exchange      EXHF   =         0.00000000
  -V(xc)+E(xc)   XCENC  =        60.40193403
  PAW double counting   =     12230.04436821   -12227.73091953
  entropy T*S    EENTRO =        -0.00000000
  eigenvalues    EBANDS =      -255.55762799
  atomic energy  EATOM  =      1011.90989422
  Solvation  Ediel_sol  =         0.00000000
  ---------------------------------------------------
  free energy    TOTEN  =       -23.23728427 eV

  energy without entropy =      -23.23728427  energy(sigma->0) =      -23.23728427


--------------------------------------------------------------------------------------------------------




--------------------------------------- Iteration      1(  10)  ---------------------------------------


    POTLOK:  cpu time   41.2123: real time   41.2542
    SETDIJ:  cpu time    0.0470: real time    0.0470
     EDDAV:  cpu time   17.2355: real time   17.2584
       DOS:  cpu time    0.0205: real time    0.0205
    CHARGE:  cpu time   23.4344: real time   23.4532
    MIXING:  cpu time    1.1346: real time    1.1358
    --------------------------------------------
      LOOP:  cpu time   83.0842: real time   83.1691

 eigenvalue-minimisations  :    32
 total energy-change (2. order) :-0.4082897E-03  (-0.3218723E-03)
 number of electron      16.0000000 magnetization 
 augmentation part        0.0600823 magnetization 

 Broyden mixing:
  rms(total) = 0.62751E-01    rms(broyden)= 0.62751E-01
  rms(prec ) = 0.62940E-01
  weight for this iteration     100.00

 eigenvalues of (default mixing * dielectric matrix)
  average eigenvalue GAMMA=   1.3382
  2.1119  2.1119  0.9492  0.9492  0.5689

 Free energy of the ion-electron system (eV)
  ---------------------------------------------------
  alpha Z        PSCENC =         0.01672601
  Ewald energy   TEWEN  =       662.91093246
  -Hartree energ DENC   =     -1505.31947037
  -exchange      EXHF   =         0.00000000
  -V(xc)+E(xc)   XCENC  =        60.40040745
  PAW double counting   =     12450.60131373   -12448.28382494
  entropy T*S    EENTRO =        -0.00000000
  eigenvalues    EBANDS =      -255.47367110
  atomic energy  EATOM  =      1011.90989422
  Solvation  Ediel_sol  =         0.00000000
  ---------------------------------------------------
  free energy    TOTEN  =       -23.23769256 eV

  energy without entropy =      -23.23769256  energy(sigma->0) =      -23.23769256


--------------------------------------------------------------------------------------------------------




--------------------------------------- Iteration      1(  11)  ---------------------------------------


    POTLOK:  cpu time   41.0712: real time   41.1178
    SETDIJ:  cpu time    0.0533: real time    0.0533
     EDDAV:  cpu time   17.2769: real time   17.2992
       DOS:  cpu time    0.0039: real time    0.0039
    CHARGE:  cpu time   23.4714: real time   23.4905
    MIXING:  cpu time    1.1889: real time    1.1901
    --------------------------------------------
      LOOP:  cpu time   83.0656: real time   83.1548

 eigenvalue-minimisations  :    32
 total energy-change (2. order) :-0.1618753E-02  (-0.3411238E-03)
 number of electron      16.0000000 magnetization 
 augmentation part        0.0607781 magnetization 

 Broyden mixing:
  rms(total) = 0.19351E-01    rms(broyden)= 0.19351E-01
  rms(prec ) = 0.19643E-01
  weight for this iteration     100.00

 eigenvalues of (default mixing * dielectric matrix)
  average eigenvalue GAMMA=   1.4028
  2.3788  2.3788  1.2626  0.9323  0.9323  0.5321

 Free energy of the ion-electron system (eV)
  ---------------------------------------------------
  alpha Z        PSCENC =         0.01672601
  Ewald energy   TEWEN  =       662.91093246
  -Hartree energ DENC   =     -1504.83674803
  -exchange      EXHF   =         0.00000000
  -V(xc)+E(xc)   XCENC  =        60.36399806
  PAW double counting   =     12158.64422854   -12156.31414664
  entropy T*S    EENTRO =        -0.00000000
  eigenvalues    EBANDS =      -255.93419592
  atomic energy  EATOM  =      1011.90989422
  Solvation  Ediel_sol  =         0.00000000
  ---------------------------------------------------
  free energy    TOTEN  =       -23.23931131 eV

  energy without entropy =      -23.23931131  energy(sigma->0) =      -23.23931131


--------------------------------------------------------------------------------------------------------




--------------------------------------- Iteration      1(  12)  ---------------------------------------


    POTLOK:  cpu time   41.0493: real time   41.0911
    SETDIJ:  cpu time    0.0485: real time    0.0485
     EDDAV:  cpu time   17.2529: real time   17.2754
       DOS:  cpu time    0.0090: real time    0.0090
    CHARGE:  cpu time   23.4260: real time   23.4450
    MIXING:  cpu time    1.1476: real time    1.1488
    --------------------------------------------
      LOOP:  cpu time   82.9333: real time   83.0178

 eigenvalue-minimisations  :    32
 total energy-change (2. order) :-0.1372657E-02  (-0.4552966E-04)
 number of electron      16.0000000 magnetization 
 augmentation part        0.0606323 magnetization 

 Broyden mixing:
  rms(total) = 0.44464E-02    rms(broyden)= 0.44464E-02
  rms(prec ) = 0.49713E-02
  weight for this iteration     100.00

 eigenvalues of (default mixing * dielectric matrix)
  average eigenvalue GAMMA=   1.4268
  2.7074  2.4833  1.3773  1.0267  0.9352  0.9352  0.5223

 Free energy of the ion-electron system (eV)
  ---------------------------------------------------
  alpha Z        PSCENC =         0.01672601
  Ewald energy   TEWEN  =       662.91093246
  -Hartree energ DENC   =     -1505.44770992
  -exchange      EXHF   =         0.00000000
  -V(xc)+E(xc)   XCENC  =        60.38541101
  PAW double counting   =     12159.48616431   -12157.15960367
  entropy T*S    EENTRO =        -0.00000000
  eigenvalues    EBANDS =      -255.34249839
  atomic energy  EATOM  =      1011.90989422
  Solvation  Ediel_sol  =         0.00000000
  ---------------------------------------------------
  free energy    TOTEN  =       -23.24068397 eV

  energy without entropy =      -23.24068397  energy(sigma->0) =      -23.24068397


--------------------------------------------------------------------------------------------------------




--------------------------------------- Iteration      1(  13)  ---------------------------------------


    POTLOK:  cpu time   40.9021: real time   40.9429
    SETDIJ:  cpu time    0.0417: real time    0.0417
     EDDAV:  cpu time   20.2138: real time   20.2411
       DOS:  cpu time    0.0068: real time    0.0068
    CHARGE:  cpu time   23.3896: real time   23.4093
    MIXING:  cpu time    1.1618: real time    1.1632
    --------------------------------------------
      LOOP:  cpu time   85.7158: real time   85.8049

 eigenvalue-minimisations  :    40
 total energy-change (2. order) :-0.1172245E-02  (-0.2219094E-04)
 number of electron      16.0000000 magnetization 
 augmentation part        0.0604101 magnetization 

 Broyden mixing:
  rms(total) = 0.37460E-02    rms(broyden)= 0.37460E-02
  rms(prec ) = 0.40444E-02
  weight for this iteration     100.00

 eigenvalues of (default mixing * dielectric matrix)
  average eigenvalue GAMMA=   1.4350
  2.7471  2.4401  1.5695  1.1986  1.1986  0.9000  0.9000  0.5258

 Free energy of the ion-electron system (eV)
  ---------------------------------------------------
  alpha Z        PSCENC =         0.01672601
  Ewald energy   TEWEN  =       662.91093246
  -Hartree energ DENC   =     -1505.83667371
  -exchange      EXHF   =         0.00000000
  -V(xc)+E(xc)   XCENC  =        60.39781020
  PAW double counting   =     12186.14469788   -12183.81963018
  entropy T*S    EENTRO =        -0.00000000
  eigenvalues    EBANDS =      -254.96561309
  atomic energy  EATOM  =      1011.90989422
  Solvation  Ediel_sol  =         0.00000000
  ---------------------------------------------------
  free energy    TOTEN  =       -23.24185621 eV

  energy without entropy =      -23.24185621  energy(sigma->0) =      -23.24185621


--------------------------------------------------------------------------------------------------------




--------------------------------------- Iteration      1(  14)  ---------------------------------------


    POTLOK:  cpu time   40.9389: real time   40.9855
    SETDIJ:  cpu time    0.0408: real time    0.0408
     EDDAV:  cpu time   17.2013: real time   17.2242
       DOS:  cpu time    0.0113: real time    0.0113
    CHARGE:  cpu time   23.5919: real time   23.6108
    MIXING:  cpu time    1.2382: real time    1.2396
    --------------------------------------------
      LOOP:  cpu time   83.0224: real time   83.1122

 eigenvalue-minimisations  :    32
 total energy-change (2. order) :-0.1341085E-02  (-0.7315424E-05)
 number of electron      16.0000000 magnetization 
 augmentation part        0.0604504 magnetization 

 Broyden mixing:
  rms(total) = 0.22497E-02    rms(broyden)= 0.22497E-02
  rms(prec ) = 0.24708E-02
  weight for this iteration     100.00

 eigenvalues of (default mixing * dielectric matrix)
  average eigenvalue GAMMA=   1.6339
  4.0184  2.6851  2.3087  1.3304  0.9059  0.9059  1.0253  1.0000  0.5253

 Free energy of the ion-electron system (eV)
  ---------------------------------------------------
  alpha Z        PSCENC =         0.01672601
  Ewald energy   TEWEN  =       662.91093246
  -Hartree energ DENC   =     -1506.02111538
  -exchange      EXHF   =         0.00000000
  -V(xc)+E(xc)   XCENC  =        60.39949544
  PAW double counting   =     12185.90743944   -12183.58155762
  entropy T*S    EENTRO =        -0.00000000
  eigenvalues    EBANDS =      -254.78501186
  atomic energy  EATOM  =      1011.90989422
  Solvation  Ediel_sol  =         0.00000000
  ---------------------------------------------------
  free energy    TOTEN  =       -23.24319730 eV

  energy without entropy =      -23.24319730  energy(sigma->0) =      -23.24319730


--------------------------------------------------------------------------------------------------------




--------------------------------------- Iteration      1(  15)  ---------------------------------------


    POTLOK:  cpu time   40.8708: real time   40.9157
    SETDIJ:  cpu time    0.0482: real time    0.0482
     EDDAV:  cpu time   20.2412: real time   20.2707
       DOS:  cpu time    0.0130: real time    0.0130
    CHARGE:  cpu time   23.5522: real time   23.5723
    MIXING:  cpu time    1.2514: real time    1.2528
    --------------------------------------------
      LOOP:  cpu time   85.9768: real time   86.0727

 eigenvalue-minimisations  :    40
 total energy-change (2. order) :-0.1117446E-02  (-0.1447533E-04)
 number of electron      16.0000000 magnetization 
 augmentation part        0.0604210 magnetization 

 Broyden mixing:
  rms(total) = 0.17418E-02    rms(broyden)= 0.17418E-02
  rms(prec ) = 0.18199E-02
  weight for this iteration     100.00

 eigenvalues of (default mixing * dielectric matrix)
  average eigenvalue GAMMA=   1.7749
  5.1820  2.5272  2.5272  1.8272  1.1988  1.1988  0.9537  0.9042  0.9042  0.5252

 Free energy of the ion-electron system (eV)
  ---------------------------------------------------
  alpha Z        PSCENC =         0.01672601
  Ewald energy   TEWEN  =       662.91093246
  -Hartree energ DENC   =     -1506.23488472
  -exchange      EXHF   =         0.00000000
  -V(xc)+E(xc)   XCENC  =        60.40189602
  PAW double counting   =     12172.44597524   -12170.11962814
  entropy T*S    EENTRO =        -0.00000000
  eigenvalues    EBANDS =      -254.57522583
  atomic energy  EATOM  =      1011.90989422
  Solvation  Ediel_sol  =         0.00000000
  ---------------------------------------------------
  free energy    TOTEN  =       -23.24431474 eV

  energy without entropy =      -23.24431474  energy(sigma->0) =      -23.24431474


--------------------------------------------------------------------------------------------------------




--------------------------------------- Iteration      1(  16)  ---------------------------------------


    POTLOK:  cpu time   40.7692: real time   40.8106
    SETDIJ:  cpu time    0.0492: real time    0.0492
     EDDAV:  cpu time   20.2517: real time   20.2877
       DOS:  cpu time    0.0024: real time    0.0023
    CHARGE:  cpu time   23.5425: real time   23.5627
    MIXING:  cpu time    1.3097: real time    1.3112
    --------------------------------------------
      LOOP:  cpu time   85.9246: real time   86.0237

 eigenvalue-minimisations  :    40
 total energy-change (2. order) :-0.5578045E-03  (-0.2838709E-05)
 number of electron      16.0000000 magnetization 
 augmentation part        0.0604386 magnetization 

 Broyden mixing:
  rms(total) = 0.59000E-03    rms(broyden)= 0.59000E-03
  rms(prec ) = 0.66502E-03
  weight for this iteration     100.00

 eigenvalues of (default mixing * dielectric matrix)
  average eigenvalue GAMMA=   1.9539
  6.2914  3.3591  2.4838  2.4838  0.5252  1.3702  0.8972  0.8972  1.0967  1.0967
  0.9912

 Free energy of the ion-electron system (eV)
  ---------------------------------------------------
  alpha Z        PSCENC =         0.01672601
  Ewald energy   TEWEN  =       662.91093246
  -Hartree energ DENC   =     -1506.30824865
  -exchange      EXHF   =         0.00000000
  -V(xc)+E(xc)   XCENC  =        60.40176942
  PAW double counting   =     12175.81969348   -12173.49328831
  entropy T*S    EENTRO =        -0.00000000
  eigenvalues    EBANDS =      -254.50235118
  atomic energy  EATOM  =      1011.90989422
  Solvation  Ediel_sol  =         0.00000000
  ---------------------------------------------------
  free energy    TOTEN  =       -23.24487255 eV

  energy without entropy =      -23.24487255  energy(sigma->0) =      -23.24487255


--------------------------------------------------------------------------------------------------------




--------------------------------------- Iteration      1(  17)  ---------------------------------------


    POTLOK:  cpu time   40.7966: real time   40.8384
    SETDIJ:  cpu time    0.0421: real time    0.0421
     EDDAV:  cpu time   20.3345: real time   20.3616
       DOS:  cpu time    0.0105: real time    0.0105
    CHARGE:  cpu time   23.5469: real time   23.5660
    MIXING:  cpu time    1.3362: real time    1.3377
    --------------------------------------------
      LOOP:  cpu time   86.0668: real time   86.1563

 eigenvalue-minimisations  :    40
 total energy-change (2. order) :-0.4535984E-03  (-0.2423660E-05)
 number of electron      16.0000000 magnetization 
 augmentation part        0.0604041 magnetization 

 Broyden mixing:
  rms(total) = 0.50031E-03    rms(broyden)= 0.50031E-03
  rms(prec ) = 0.52080E-03
  weight for this iteration     100.00

 eigenvalues of (default mixing * dielectric matrix)
  average eigenvalue GAMMA=   2.0119
  6.8048  3.6965  2.6346  2.4583  1.8775  1.3297  0.5252  1.0290  1.0290  0.8956
  0.8956  0.9675

 Free energy of the ion-electron system (eV)
  ---------------------------------------------------
  alpha Z        PSCENC =         0.01672601
  Ewald energy   TEWEN  =       662.91093246
  -Hartree energ DENC   =     -1506.33286076
  -exchange      EXHF   =         0.00000000
  -V(xc)+E(xc)   XCENC  =        60.40118229
  PAW double counting   =     12173.69459920   -12171.36845577
  entropy T*S    EENTRO =        -0.00000000
  eigenvalues    EBANDS =      -254.47734379
  atomic energy  EATOM  =      1011.90989422
  Solvation  Ediel_sol  =         0.00000000
  ---------------------------------------------------
  free energy    TOTEN  =       -23.24532615 eV

  energy without entropy =      -23.24532615  energy(sigma->0) =      -23.24532615


--------------------------------------------------------------------------------------------------------




--------------------------------------- Iteration      1(  18)  ---------------------------------------


    POTLOK:  cpu time   40.7577: real time   40.8033
    SETDIJ:  cpu time    0.0435: real time    0.0435
     EDDAV:  cpu time   17.2381: real time   17.2609
       DOS:  cpu time    0.0199: real time    0.0199
    CHARGE:  cpu time   23.3990: real time   23.4182
    MIXING:  cpu time    1.4483: real time    1.4500
    --------------------------------------------
      LOOP:  cpu time   82.9064: real time   82.9957

 eigenvalue-minimisations  :    32
 total energy-change (2. order) :-0.1535580E-03  (-0.3659003E-06)
 number of electron      16.0000000 magnetization 
 augmentation part        0.0604184 magnetization 

 Broyden mixing:
  rms(total) = 0.22707E-03    rms(broyden)= 0.22707E-03
  rms(prec ) = 0.24071E-03
  weight for this iteration     100.00

 eigenvalues of (default mixing * dielectric matrix)
  average eigenvalue GAMMA=   2.0437
  7.3624  4.2984  2.5047  2.5047  2.2505  1.3529  0.5252  1.0909  1.0273  1.0273
  0.8959  0.8959  0.8321

 Free energy of the ion-electron system (eV)
  ---------------------------------------------------
  alpha Z        PSCENC =         0.01672601
  Ewald energy   TEWEN  =       662.91093246
  -Hartree energ DENC   =     -1506.33639654
  -exchange      EXHF   =         0.00000000
  -V(xc)+E(xc)   XCENC  =        60.40074536
  PAW double counting   =     12175.22131192   -12172.89508779
  entropy T*S    EENTRO =        -0.00000000
  eigenvalues    EBANDS =      -254.47360534
  atomic energy  EATOM  =      1011.90989422
  Solvation  Ediel_sol  =         0.00000000
  ---------------------------------------------------
  free energy    TOTEN  =       -23.24547970 eV

  energy without entropy =      -23.24547970  energy(sigma->0) =      -23.24547970


--------------------------------------------------------------------------------------------------------




--------------------------------------- Iteration      1(  19)  ---------------------------------------


    POTLOK:  cpu time   40.7391: real time   40.7805
    SETDIJ:  cpu time    0.0403: real time    0.0403
     EDDAV:  cpu time   20.2624: real time   20.2890
       DOS:  cpu time    0.0123: real time    0.0123
    CHARGE:  cpu time   23.4193: real time   23.4390
    MIXING:  cpu time    1.4572: real time    1.4589
    --------------------------------------------
      LOOP:  cpu time   85.9306: real time   86.0199

 eigenvalue-minimisations  :    40
 total energy-change (2. order) :-0.5526759E-04  (-0.9002335E-07)
 number of electron      16.0000000 magnetization 
 augmentation part        0.0604168 magnetization 

 Broyden mixing:
  rms(total) = 0.19720E-03    rms(broyden)= 0.19720E-03
  rms(prec ) = 0.20457E-03
  weight for this iteration     100.00

 eigenvalues of (default mixing * dielectric matrix)
  average eigenvalue GAMMA=   2.1418
  8.1943  4.6498  3.0852  2.6294  2.3732  1.4980  0.5252  1.3713  0.8938  0.8938
  1.0111  1.0111  1.0031  0.8460

 Free energy of the ion-electron system (eV)
  ---------------------------------------------------
  alpha Z        PSCENC =         0.01672601
  Ewald energy   TEWEN  =       662.91093246
  -Hartree energ DENC   =     -1506.33788730
  -exchange      EXHF   =         0.00000000
  -V(xc)+E(xc)   XCENC  =        60.40058502
  PAW double counting   =     12175.82529035   -12173.49903264
  entropy T*S    EENTRO =        -0.00000000
  eigenvalues    EBANDS =      -254.47204308
  atomic energy  EATOM  =      1011.90989422
  Solvation  Ediel_sol  =         0.00000000
  ---------------------------------------------------
  free energy    TOTEN  =       -23.24553497 eV

  energy without entropy =      -23.24553497  energy(sigma->0) =      -23.24553497


--------------------------------------------------------------------------------------------------------




--------------------------------------- Iteration      1(  20)  ---------------------------------------


    POTLOK:  cpu time   40.7261: real time   40.7702
    SETDIJ:  cpu time    0.0419: real time    0.0419
     EDDAV:  cpu time   17.1766: real time   17.1989
       DOS:  cpu time    0.0220: real time    0.0220
    CHARGE:  cpu time   23.5137: real time   23.5329
    MIXING:  cpu time    1.5106: real time    1.5124
    --------------------------------------------
      LOOP:  cpu time   82.9908: real time   83.0783

 eigenvalue-minimisations  :    32
 total energy-change (2. order) :-0.5598215E-04  (-0.6064488E-07)
 number of electron      16.0000000 magnetization 
 augmentation part        0.0604139 magnetization 

 Broyden mixing:
  rms(total) = 0.43819E-04    rms(broyden)= 0.43819E-04
  rms(prec ) = 0.50860E-04
  weight for this iteration     100.00

 eigenvalues of (default mixing * dielectric matrix)
  average eigenvalue GAMMA=   2.2231
  8.6258  5.1542  3.4709  2.5308  2.5308  2.3296  1.3565  0.5252  1.1686  1.0129
  1.0129  0.8923  0.8923  0.9676  0.8761

 Free energy of the ion-electron system (eV)
  ---------------------------------------------------
  alpha Z        PSCENC =         0.01672601
  Ewald energy   TEWEN  =       662.91093246
  -Hartree energ DENC   =     -1506.34091536
  -exchange      EXHF   =         0.00000000
  -V(xc)+E(xc)   XCENC  =        60.40053902
  PAW double counting   =     12175.51004887   -12173.18376429
  entropy T*S    EENTRO =        -0.00000000
  eigenvalues    EBANDS =      -254.46905188
  atomic energy  EATOM  =      1011.90989422
  Solvation  Ediel_sol  =         0.00000000
  ---------------------------------------------------
  free energy    TOTEN  =       -23.24559095 eV

  energy without entropy =      -23.24559095  energy(sigma->0) =      -23.24559095


--------------------------------------------------------------------------------------------------------




--------------------------------------- Iteration      1(  21)  ---------------------------------------


    POTLOK:  cpu time   40.6323: real time   40.6734
    SETDIJ:  cpu time    0.0537: real time    0.0538
     EDDAV:  cpu time   14.2348: real time   14.2533
       DOS:  cpu time    0.0125: real time    0.0125
    CHARGE:  cpu time   23.4155: real time   23.4340
    MIXING:  cpu time    1.5880: real time    1.5899
    --------------------------------------------
      LOOP:  cpu time   79.9369: real time   80.0170

 eigenvalue-minimisations  :    24
 total energy-change (2. order) :-0.2187565E-04  (-0.9468099E-08)
 number of electron      16.0000000 magnetization 
 augmentation part        0.0604149 magnetization 

 Broyden mixing:
  rms(total) = 0.21777E-04    rms(broyden)= 0.21777E-04
  rms(prec ) = 0.25239E-04
  weight for this iteration     100.00

 eigenvalues of (default mixing * dielectric matrix)
  average eigenvalue GAMMA=   2.2585
  9.0848  5.6778  3.7719  2.6463  2.6463  2.3463  0.5252  1.4077  1.4077  0.8905
  0.8905  0.9763  0.9763  0.9736  0.9736  0.9407

 Free energy of the ion-electron system (eV)
  ---------------------------------------------------
  alpha Z        PSCENC =         0.01672601
  Ewald energy   TEWEN  =       662.91093246
  -Hartree energ DENC   =     -1506.34235210
  -exchange      EXHF   =         0.00000000
  -V(xc)+E(xc)   XCENC  =        60.40052764
  PAW double counting   =     12175.25337470   -12172.92710146
  entropy T*S    EENTRO =        -0.00000000
  eigenvalues    EBANDS =      -254.46761429
  atomic energy  EATOM  =      1011.90989422
  Solvation  Ediel_sol  =         0.00000000
  ---------------------------------------------------
  free energy    TOTEN  =       -23.24561283 eV

  energy without entropy =      -23.24561283  energy(sigma->0) =      -23.24561283


--------------------------------------------------------------------------------------------------------




--------------------------------------- Iteration      1(  22)  ---------------------------------------


    POTLOK:  cpu time   40.5113: real time   40.5568
    SETDIJ:  cpu time    0.0528: real time    0.0528
     EDDAV:  cpu time   14.1730: real time   14.1947
       DOS:  cpu time    0.0096: real time    0.0096
    CHARGE:  cpu time   23.3667: real time   23.3860
    MIXING:  cpu time    1.6550: real time    1.6570
    --------------------------------------------
      LOOP:  cpu time   79.7684: real time   79.8569

 eigenvalue-minimisations  :    24
 total energy-change (2. order) :-0.7485005E-05  (-0.4491753E-08)
 number of electron      16.0000000 magnetization 
 augmentation part        0.0604152 magnetization 

 Broyden mixing:
  rms(total) = 0.14176E-04    rms(broyden)= 0.14176E-04
  rms(prec ) = 0.16164E-04
  weight for this iteration     100.00

 eigenvalues of (default mixing * dielectric matrix)
  average eigenvalue GAMMA=   2.3738
  9.4377  6.1163  4.4325  2.8876  2.6938  2.6938  2.3409  0.5252  1.3579  1.2237
  0.9993  0.9993  0.8923  0.8923  1.0103  0.9556  0.8964

 Free energy of the ion-electron system (eV)
  ---------------------------------------------------
  alpha Z        PSCENC =         0.01672601
  Ewald energy   TEWEN  =       662.91093246
  -Hartree energ DENC   =     -1506.34256083
  -exchange      EXHF   =         0.00000000
  -V(xc)+E(xc)   XCENC  =        60.40051105
  PAW double counting   =     12175.21432542   -12172.88805235
  entropy T*S    EENTRO =        -0.00000000
  eigenvalues    EBANDS =      -254.46739628
  atomic energy  EATOM  =      1011.90989422
  Solvation  Ediel_sol  =         0.00000000
  ---------------------------------------------------
  free energy    TOTEN  =       -23.24562031 eV

  energy without entropy =      -23.24562031  energy(sigma->0) =      -23.24562031


--------------------------------------------------------------------------------------------------------




--------------------------------------- Iteration      1(  23)  ---------------------------------------


    POTLOK:  cpu time   40.3911: real time   40.4324
    SETDIJ:  cpu time    0.0595: real time    0.0595
     EDDAV:  cpu time   14.1873: real time   14.2082
       DOS:  cpu time    0.0083: real time    0.0083
    CHARGE:  cpu time   23.4579: real time   23.4776
    MIXING:  cpu time    1.7117: real time    1.7138
    --------------------------------------------
      LOOP:  cpu time   79.8157: real time   79.8998

 eigenvalue-minimisations  :    24
 total energy-change (2. order) :-0.5938447E-05  (-0.3435460E-08)
 number of electron      16.0000000 magnetization 
 augmentation part        0.0604148 magnetization 

 Broyden mixing:
  rms(total) = 0.68660E-05    rms(broyden)= 0.68660E-05
  rms(prec ) = 0.75101E-05
  weight for this iteration     100.00

 eigenvalues of (default mixing * dielectric matrix)
  average eigenvalue GAMMA=   2.3647
  9.5121  6.4889  4.6175  3.3573  2.6213  2.6213  2.3577  1.4681  1.3807  0.5252
  0.9743  0.9743  1.0229  1.0229  0.8928  0.8928  0.9720  0.8622

 Free energy of the ion-electron system (eV)
  ---------------------------------------------------
  alpha Z        PSCENC =         0.01672601
  Ewald energy   TEWEN  =       662.91093246
  -Hartree energ DENC   =     -1506.34326206
  -exchange      EXHF   =         0.00000000
  -V(xc)+E(xc)   XCENC  =        60.40052348
  PAW double counting   =     12175.26971144   -12172.94343748
  entropy T*S    EENTRO =        -0.00000000
  eigenvalues    EBANDS =      -254.46671431
  atomic energy  EATOM  =      1011.90989422
  Solvation  Ediel_sol  =         0.00000000
  ---------------------------------------------------
  free energy    TOTEN  =       -23.24562625 eV

  energy without entropy =      -23.24562625  energy(sigma->0) =      -23.24562625


--------------------------------------------------------------------------------------------------------




--------------------------------------- Iteration      1(  24)  ---------------------------------------


    POTLOK:  cpu time   40.3713: real time   40.4130
    SETDIJ:  cpu time    0.0471: real time    0.0471
     EDDAV:  cpu time   14.2373: real time   14.2683
       DOS:  cpu time    0.0095: real time    0.0095
    CHARGE:  cpu time   23.3726: real time   23.3942
    MIXING:  cpu time    1.7732: real time    1.7755
    --------------------------------------------
      LOOP:  cpu time   79.8110: real time   79.9077

 eigenvalue-minimisations  :    24
 total energy-change (2. order) :-0.1198617E-05  (-0.1362306E-08)
 number of electron      16.0000000 magnetization 
 augmentation part        0.0604145 magnetization 

 Broyden mixing:
  rms(total) = 0.75701E-05    rms(broyden)= 0.75701E-05
  rms(prec ) = 0.78764E-05
  weight for this iteration     100.00

 eigenvalues of (default mixing * dielectric matrix)
  average eigenvalue GAMMA=   2.4141
  9.6547  6.7729  4.8811  3.6894  2.6981  2.5350  2.5350  2.3403  0.5252  1.3623
  1.2259  0.9987  0.9987  0.8933  0.8933  1.0460  0.9689  0.9689  0.8806

 Free energy of the ion-electron system (eV)
  ---------------------------------------------------
  alpha Z        PSCENC =         0.01672601
  Ewald energy   TEWEN  =       662.91093246
  -Hartree energ DENC   =     -1506.34319049
  -exchange      EXHF   =         0.00000000
  -V(xc)+E(xc)   XCENC  =        60.40052245
  PAW double counting   =     12175.26660944   -12172.94033899
  entropy T*S    EENTRO =        -0.00000000
  eigenvalues    EBANDS =      -254.46678254
  atomic energy  EATOM  =      1011.90989422
  Solvation  Ediel_sol  =         0.00000000
  ---------------------------------------------------
  free energy    TOTEN  =       -23.24562745 eV

  energy without entropy =      -23.24562745  energy(sigma->0) =      -23.24562745


--------------------------------------------------------------------------------------------------------




--------------------------------------- Iteration      1(  25)  ---------------------------------------


    POTLOK:  cpu time   40.3423: real time   40.3840
    SETDIJ:  cpu time    0.0438: real time    0.0439
     EDDAV:  cpu time   14.1623: real time   14.1848
       DOS:  cpu time    0.0106: real time    0.0106
    CHARGE:  cpu time   23.3307: real time   23.3499
    MIXING:  cpu time    1.8617: real time    1.8645
    --------------------------------------------
      LOOP:  cpu time   79.7514: real time   79.8377

 eigenvalue-minimisations  :    24
 total energy-change (2. order) :-0.9514943E-06  (-0.5153993E-09)
 number of electron      16.0000000 magnetization 
 augmentation part        0.0604148 magnetization 

 Broyden mixing:
  rms(total) = 0.48941E-05    rms(broyden)= 0.48941E-05
  rms(prec ) = 0.49966E-05
  weight for this iteration     100.00

 eigenvalues of (default mixing * dielectric matrix)
  average eigenvalue GAMMA=   2.3902
  9.7097  6.8469  5.0014  3.6850  2.8340  2.7101  2.7101  2.3727  0.5252  1.3772
  1.3772  1.0220  1.0220  1.0272  1.0272  0.8934  0.8934  0.9888  0.8904  0.8904

 Free energy of the ion-electron system (eV)
  ---------------------------------------------------
  alpha Z        PSCENC =         0.01672601
  Ewald energy   TEWEN  =       662.91093246
  -Hartree energ DENC   =     -1506.34309527
  -exchange      EXHF   =         0.00000000
  -V(xc)+E(xc)   XCENC  =        60.40051515
  PAW double counting   =     12175.23962320   -12172.91335237
  entropy T*S    EENTRO =        -0.00000000
  eigenvalues    EBANDS =      -254.46687179
  atomic energy  EATOM  =      1011.90989422
  Solvation  Ediel_sol  =         0.00000000
  ---------------------------------------------------
  free energy    TOTEN  =       -23.24562840 eV

  energy without entropy =      -23.24562840  energy(sigma->0) =      -23.24562840


--------------------------------------------------------------------------------------------------------




--------------------------------------- Iteration      1(  26)  ---------------------------------------


    POTLOK:  cpu time   40.2893: real time   40.3310
    SETDIJ:  cpu time    0.0403: real time    0.0403
     EDDAV:  cpu time   14.2300: real time   14.2504
       DOS:  cpu time    0.0151: real time    0.0151
    CHARGE:  cpu time   23.3511: real time   23.3698
    MIXING:  cpu time    1.9998: real time    2.0058
    --------------------------------------------
      LOOP:  cpu time   79.9254: real time   80.0124

 eigenvalue-minimisations  :    24
 total energy-change (2. order) :-0.2717170E-06  (-0.3068337E-09)
 number of electron      16.0000000 magnetization 
 augmentation part        0.0604149 magnetization 

 Broyden mixing:
  rms(total) = 0.26334E-05    rms(broyden)= 0.26334E-05
  rms(prec ) = 0.27487E-05
  weight for this iteration     100.00

 eigenvalues of (default mixing * dielectric matrix)
  average eigenvalue GAMMA=   2.4290
  9.7778  7.2381  5.3884  4.2024  3.0975  2.4615  2.4615  2.2950  2.2950  1.3653
  0.5252  1.1487  1.1487  1.0106  1.0106  0.8927  0.8927  0.9996  0.9996  0.8988
  0.8988

 Free energy of the ion-electron system (eV)
  ---------------------------------------------------
  alpha Z        PSCENC =         0.01672601
  Ewald energy   TEWEN  =       662.91093246
  -Hartree energ DENC   =     -1506.34305419
  -exchange      EXHF   =         0.00000000
  -V(xc)+E(xc)   XCENC  =        60.40051178
  PAW double counting   =     12175.23825786   -12172.91198559
  entropy T*S    EENTRO =        -0.00000000
  eigenvalues    EBANDS =      -254.46691121
  atomic energy  EATOM  =      1011.90989422
  Solvation  Ediel_sol  =         0.00000000
  ---------------------------------------------------
  free energy    TOTEN  =       -23.24562867 eV

  energy without entropy =      -23.24562867  energy(sigma->0) =      -23.24562867


--------------------------------------------------------------------------------------------------------




--------------------------------------- Iteration      1(  27)  ---------------------------------------


    POTLOK:  cpu time   40.4609: real time   40.5020
    SETDIJ:  cpu time    0.0457: real time    0.0457
     EDDAV:  cpu time   14.1803: real time   14.1990
       DOS:  cpu time    0.0093: real time    0.0093
    CHARGE:  cpu time   23.3346: real time   23.3539
    MIXING:  cpu time    2.0234: real time    2.0260
    --------------------------------------------
      LOOP:  cpu time   80.0543: real time   80.1362

 eigenvalue-minimisations  :    24
 total energy-change (2. order) :-0.2725528E-06  (-0.2444658E-09)
 number of electron      16.0000000 magnetization 
 augmentation part        0.0604148 magnetization 

 Broyden mixing:
  rms(total) = 0.15824E-05    rms(broyden)= 0.15824E-05
  rms(prec ) = 0.16286E-05
  weight for this iteration     100.00

 eigenvalues of (default mixing * dielectric matrix)
  average eigenvalue GAMMA=   2.4632
  9.8090  7.4102  5.6751  4.2615  3.5827  2.6876  2.3914  2.3914  2.0504  2.0504
  0.5252  1.3644  1.2483  1.1353  0.8929  0.8929  1.0063  1.0063  0.8873  0.9932
  0.9932  0.9357

 Free energy of the ion-electron system (eV)
  ---------------------------------------------------
  alpha Z        PSCENC =         0.01672601
  Ewald energy   TEWEN  =       662.91093246
  -Hartree energ DENC   =     -1506.34302498
  -exchange      EXHF   =         0.00000000
  -V(xc)+E(xc)   XCENC  =        60.40051088
  PAW double counting   =     12175.25594620   -12172.92967334
  entropy T*S    EENTRO =        -0.00000000
  eigenvalues    EBANDS =      -254.46694038
  atomic energy  EATOM  =      1011.90989422
  Solvation  Ediel_sol  =         0.00000000
  ---------------------------------------------------
  free energy    TOTEN  =       -23.24562895 eV

  energy without entropy =      -23.24562895  energy(sigma->0) =      -23.24562895


--------------------------------------------------------------------------------------------------------




--------------------------------------- Iteration      1(  28)  ---------------------------------------


    POTLOK:  cpu time   40.4893: real time   40.5310
    SETDIJ:  cpu time    0.0402: real time    0.0402
     EDDAV:  cpu time   14.2119: real time   14.2326
       DOS:  cpu time    0.0125: real time    0.0125
    --------------------------------------------
      LOOP:  cpu time   54.7538: real time   54.8162

 eigenvalue-minimisations  :    24
 total energy-change (2. order) :-0.7571384E-07  (-0.1559286E-09)
 number of electron      16.0000000 magnetization 
 augmentation part        0.0604148 magnetization 

 Free energy of the ion-electron system (eV)
  ---------------------------------------------------
  alpha Z        PSCENC =         0.01672601
  Ewald energy   TEWEN  =       662.91093246
  -Hartree energ DENC   =     -1506.34307412
  -exchange      EXHF   =         0.00000000
  -V(xc)+E(xc)   XCENC  =        60.40051365
  PAW double counting   =     12175.24915330   -12172.92288128
  entropy T*S    EENTRO =        -0.00000000
  eigenvalues    EBANDS =      -254.46689325
  atomic energy  EATOM  =      1011.90989422
  Solvation  Ediel_sol  =         0.00000000
  ---------------------------------------------------
  free energy    TOTEN  =       -23.24562902 eV

  energy without entropy =      -23.24562902  energy(sigma->0) =      -23.24562902


--------------------------------------------------------------------------------------------------------




 average (electrostatic) potential at core
  the test charge radii are     0.5770  0.5955
  (the norm of the test charge is              1.0000)
       1 -90.9143       2-121.7244       3-121.7244
 
 
 
 E-fermi :  -8.9804     XC(G=0):  -0.0260     alpha+bet : -0.0063


 k-point     1 :       0.0000    0.0000    0.0000
  band No.  band energies     occupation 
      1     -29.1219      2.00000
      2     -28.1150      2.00000
      3     -13.8379      2.00000
      4     -12.6804      2.00000
      5     -12.6685      2.00000
      6     -12.6685      2.00000
      7      -9.0706      2.00000
      8      -9.0706      2.00000
      9      -0.9738      0.00000
     10      -0.4738      0.00000
     11      -0.4737      0.00000
     12       0.0019      0.00000


--------------------------------------------------------------------------------------------------------


 soft charge-density along one line, spin component            1
         0         1         2         3         4         5         6         7         8         9
 total charge-density along one line
 
 pseudopotential strength for first ion, spin component:            1
 12.907  21.724   0.000  -0.000   0.000   0.000  -0.000  -0.000
 21.724  36.562   0.000  -0.000  -0.000   0.000  -0.000  -0.000
  0.000   0.000  -3.244   0.000   0.000  -5.821   0.000  -0.000
 -0.000  -0.000   0.000  -3.246  -0.000   0.000  -5.824  -0.000
  0.000  -0.000   0.000  -0.000  -3.246  -0.000  -0.000  -5.824
  0.000   0.000  -5.821   0.000  -0.000 -10.424   0.000  -0.000
 -0.000  -0.000   0.000  -5.824  -0.000   0.000 -10.428  -0.000
 -0.000  -0.000  -0.000  -0.000  -5.824  -0.000  -0.000 -10.428
 total augmentation occupancy for first ion, spin component:            1
 10.227  -4.053   0.000   0.000   0.000  -0.000   0.000  -0.000
 -4.053   1.748   0.000  -0.000  -0.000   0.000   0.000  -0.000
  0.000   0.000  15.628   0.000  -0.000  -6.282  -0.000   0.000
  0.000  -0.000   0.000   3.583   0.000   0.000  -0.998   0.000
  0.000  -0.000  -0.000   0.000   3.583   0.000   0.000  -0.998
 -0.000   0.000  -6.282   0.000   0.000   2.578   0.000   0.000
  0.000   0.000  -0.000  -0.998   0.000   0.000   0.278   0.000
 -0.000  -0.000   0.000   0.000  -0.998   0.000   0.000   0.278


------------------------ aborting loop because EDIFF is reached ----------------------------------------



 DIPCOR: dipole corrections for dipol
 direction  1 min pos   549, direction  2 min pos   569, direction  3 min pos   559,
 dipolmoment          -0.000003      0.000001     -0.000004 electrons x Angstroem
 Tr[quadrupol]         8.589614

 energy correction for charged system         0.000000 eV
 dipol+quadrupol energy correction            0.000000 eV
 added-field ion interaction          0.000000 eV  (added to PSCEN)

 
  *************** adding dipol energy to TOTEN NOW **************** 
    CHARGE:  cpu time   23.4106: real time   23.4299
    FORLOC:  cpu time    1.6207: real time    1.6220
    FORNL :  cpu time    0.4213: real time    0.4219
    STRESS:  cpu time    6.3142: real time    6.3222
    FORCOR:  cpu time   39.8981: real time   39.9372
    FORHAR:  cpu time   11.6280: real time   11.6389
    MIXING:  cpu time    2.0247: real time    2.0272
    OFIELD:  cpu time    0.0000: real time    0.0000

  FORCE on cell =-STRESS in cart. coord.  units (eV):
  Direction    XX          YY          ZZ          XY          YZ          ZX
  --------------------------------------------------------------------------------------
  Alpha Z     0.01673     0.01673     0.01673
  Ewald     -49.90005   762.71151   -49.90005     0.00000     0.00000     0.00000
  Hartree   372.24361   761.85583   372.24361    -0.00000    -0.00000    -0.00000
  E(xc)     -77.82359   -75.86712   -77.82359    -0.00000     0.00000     0.00000
  Local    -672.51341 -1805.62064  -672.51341     0.00000    -0.00000     0.00000
  n-local   -25.48869   -18.87506   -25.48869     0.00000    -0.00000    -0.00000
  augment     1.21928     0.68855     1.21928     0.00000     0.00000    -0.00000
  Kinetic   452.24200   375.11752   452.24200    -0.00000    -0.00000     0.00000
  Fock        0.00000     0.00000     0.00000     0.00000     0.00000     0.00000
  -------------------------------------------------------------------------------------
  Total      -0.00412     0.02732    -0.00412    -0.00000     0.00000     0.00000
  in kB      -0.00015     0.00102    -0.00015    -0.00000     0.00000     0.00000
  external pressure =        0.00 kB  Pullay stress =        0.00 kB


 VOLUME and BASIS-vectors are now :
 -----------------------------------------------------------------------------
  energy-cutoff  :     2000.00
  volume of cell :    42875.00
      direct lattice vectors                 reciprocal lattice vectors
    35.000000000  0.000000000  0.000000000     0.028571429  0.000000000  0.000000000
     0.000000000 35.000000000  0.000000000     0.000000000  0.028571429  0.000000000
     0.000000000  0.000000000 35.000000000     0.000000000  0.000000000  0.028571429

  length of vectors
    35.000000000 35.000000000 35.000000000     0.028571429  0.028571429  0.028571429


 FORCES acting on ions
    electron-ion (+dipol)            ewald-force                    non-local-force                 convergence-correction
 -----------------------------------------------------------------------------------------------
   0.947E-15 -.262E-06 0.617E-07   -.380E-18 0.568E-13 0.430E-18   -.404E-26 0.265E-22 0.000E+00   -.891E-14 -.573E-13 -.170E-13
   0.255E-14 0.285E+03 -.156E-06   0.754E-17 -.347E+03 -.486E-17   0.848E-26 0.620E+02 -.258E-25   -.177E-13 -.181E-04 -.201E-13
   0.514E-15 -.285E+03 0.188E-06   -.521E-17 0.347E+03 -.724E-18   -.343E-25 -.620E+02 -.808E-26   -.122E-13 0.181E-04 -.272E-13
 -----------------------------------------------------------------------------------------------
   0.401E-14 -.389E-06 0.940E-07   0.195E-17 -.568E-13 -.515E-17   -.299E-25 0.213E-13 -.339E-25   -.388E-13 -.318E-12 -.643E-13
 
 
 POSITION                                       TOTAL-FORCE (eV/Angst)
 -----------------------------------------------------------------------------------
      0.00000      3.89743      0.00000        -0.000000      0.000000      0.000000
      0.00000      2.72721      0.00000        -0.000000     -0.014152     -0.000000
      0.00000      5.06765      0.00000         0.000000      0.014152      0.000000
 -----------------------------------------------------------------------------------
    total drift:                               -0.000000     -0.000000      0.000000


--------------------------------------------------------------------------------------------------------



  FREE ENERGIE OF THE ION-ELECTRON SYSTEM (eV)
  ---------------------------------------------------
  free  energy   TOTEN  =       -23.24562902 eV

  energy  without entropy=      -23.24562902  energy(sigma->0) =      -23.24562902
 


--------------------------------------------------------------------------------------------------------


    POTLOK:  cpu time   40.3921: real time   40.4367


--------------------------------------------------------------------------------------------------------


 writing wavefunctions
     LOOP+:  cpu time 2846.3765: real time 2849.0436
    4ORBIT:  cpu time    0.0000: real time    0.0000

 total amount of memory used by VASP MPI-rank0  7215152. kBytes
=======================================================================

   base      :      30000. kBytes
   nonl-proj :      95785. kBytes
   fftplans  :    2602168. kBytes
   grid      :    4434952. kBytes
   one-center:          1. kBytes
   wavefun   :      52246. kBytes
 
  
  
 General timing and accounting informations for this job:
 ========================================================
  
                  Total CPU time used (sec):     3668.282
                            User time (sec):     3444.210
                          System time (sec):      224.073
                         Elapsed time (sec):     3671.820
  
                   Maximum memory used (kb):     9724116.
                   Average memory used (kb):           0.
  
                          Minor page faults:    164378127
                          Major page faults:          203
                 Voluntary context switches:         2502
