 vasp.6.1.2 22Jul20 (build Jan  6 2021 09:55:43) gamma-only                      
 executed on             LinuxPGI date 2023.10.20  11:09:20
 running on   32 total cores
 distrk:  each k-point on   32 cores,    1 groups
 distr:  one band on NCORE=   1 cores,   32 groups


--------------------------------------------------------------------------------------------------------


 INCAR:
 POTCAR:    PAW_PBE H_h 06Feb2004                 
 POTCAR:    PAW_PBE C_h 06Feb2004                 
 POTCAR:    PAW_PBE O_h 06Feb2004                 
 -----------------------------------------------------------------------------
|                                                                             |
|           W    W    AA    RRRRR   N    N  II  N    N   GGGG   !!!           |
|           W    W   A  A   R    R  NN   N  II  NN   N  G    G  !!!           |
|           W    W  A    A  R    R  N N  N  II  N N  N  G       !!!           |
|           W WW W  AAAAAA  RRRRR   N  N N  II  N  N N  G  GGG   !            |
|           WW  WW  A    A  R   R   N   NN  II  N   NN  G    G                |
|           W    W  A    A  R    R  N    N  II  N    N   GGGG   !!!           |
|                                                                             |
|     For optimal performance we recommend to set                             |
|       NCORE = 4 - approx SQRT(number of cores).                             |
|     NCORE specifies how many cores store one orbital (NPAR=cpu/NCORE).      |
|     This setting can greatly improve the performance of VASP for DFT.       |
|     The default, NCORE=1 might be grossly inefficient on modern             |
|     multi-core architectures or massively parallel machines. Do your        |
|     own testing!!!!                                                         |
|     Unfortunately you need to use the default for GW and RPA                |
|     calculations (for HF NCORE is supported but not extensively tested      |
|     yet).                                                                   |
|                                                                             |
 -----------------------------------------------------------------------------

 POTCAR:    PAW_PBE H_h 06Feb2004                 
   VRHFIN =H: ultrasoft test                                                                        
   LEXCH  = PE                                                                                      
   EATOM  =    12.4884 eV,    0.9179 Ry                                                             
                                                                                                    
   TITEL  = PAW_PBE H_h 06Feb2004                                                                   
   LULTRA =        F    use ultrasoft PP ?                                                          
   IUNSCR =        0    unscreen: 0-lin 1-nonlin 2-no                                               
   RPACOR =    0.000    partial core radius                                                         
   POMASS =    1.000; ZVAL   =    1.000    mass and valenz                                          
   RCORE  =    0.800    outmost cutoff radius                                                       
   RWIGS  =    0.700; RWIGS  =    0.370    wigner-seitz radius (au A)                               
   ENMAX  =  700.000; ENMIN  =  350.000 eV                                                          
   RCLOC  =    0.701    cutoff for local pot                                                        
   LCOR   =        T    correct aug charges                                                         
   LPAW   =        T    paw PP                                                                      
   EAUG   = 1000.000                                                                                
   RMAX   =    0.819    core radius for proj-oper                                                   
   RAUG   =    1.000    factor for augmentation sphere                                              
   RDEP   =    0.817    radius for radial grids                                                     
   RDEPT  =    0.817    core radius for aug-charge                                                  
                                                                                                    
   Atomic configuration                                                                             
    2 entries                                                                                       
     n  l   j            E        occ.                                                              
     1  0  0.50        -6.4927   1.0000                                                             
     2  1  0.50        -3.4015   0.0000                                                             
   Description                                                                                      
     l       E           TYP  RCUT    TYP  RCUT                                                     
     0     -6.4927493     23  0.800                                                                 
     0      6.8029130     23  0.800                                                                 
     1     -6.8029130     23  0.800                                                                 
  local pseudopotential read in
  atomic valenz-charges read in
  non local Contribution for L=            0  read in
    real space projection operators read in
  non local Contribution for L=            0  read in
    real space projection operators read in
  non local Contribution for L=            1  read in
    real space projection operators read in
    PAW grid and wavefunctions read in
 
   number of l-projection  operators is LMAX  =            3
   number of lm-projection operators is LMMAX =            5
 
 POTCAR:    PAW_PBE C_h 06Feb2004                 
   VRHFIN =C: s2p2                                                                                  
   LEXCH  = PE                                                                                      
   EATOM  =   147.1560 eV,   10.8157 Ry                                                             
                                                                                                    
   TITEL  = PAW_PBE C_h 06Feb2004                                                                   
   LULTRA =        F    use ultrasoft PP ?                                                          
   IUNSCR =        1    unscreen: 0-lin 1-nonlin 2-no                                               
   RPACOR =    0.800    partial core radius                                                         
   POMASS =   12.011; ZVAL   =    4.000    mass and valenz                                          
   RCORE  =    1.100    outmost cutoff radius                                                       
   RWIGS  =    1.630; RWIGS  =    0.863    wigner-seitz radius (au A)                               
   ENMAX  =  700.000; ENMIN  =  500.000 eV                                                          
   ICORE  =        2    local potential                                                             
   LCOR   =        T    correct aug charges                                                         
   LPAW   =        T    paw PP                                                                      
   EAUG   =  946.768                                                                                
   DEXC   =    0.000                                                                                
   RMAX   =    1.128    core radius for proj-oper                                                   
   RAUG   =    1.300    factor for augmentation sphere                                              
   RDEP   =    1.162    radius for radial grids                                                     
   RDEPT  =    1.088    core radius for aug-charge                                                  
                                                                                                    
   Atomic configuration                                                                             
    4 entries                                                                                       
     n  l   j            E        occ.                                                              
     1  0  0.50      -273.3789   2.0000                                                             
     2  0  0.50       -13.7508   2.0000                                                             
     2  1  0.50        -5.2854   2.0000                                                             
     3  2  1.50        -5.4423   0.0000                                                             
   Description                                                                                      
     l       E           TYP  RCUT    TYP  RCUT                                                     
     0    -13.7508458     23  1.100                                                                 
     0     -8.2022199     23  1.100                                                                 
     1     -5.2854383     23  1.100                                                                 
     1      1.1560700     23  1.100                                                                 
     2     -5.4423304      7  1.100                                                                 
  local pseudopotential read in
  partial core-charges read in
  partial kinetic energy density read in
  atomic valenz-charges read in
  non local Contribution for L=            0  read in
    real space projection operators read in
  non local Contribution for L=            0  read in
    real space projection operators read in
  non local Contribution for L=            1  read in
    real space projection operators read in
  non local Contribution for L=            1  read in
    real space projection operators read in
    PAW grid and wavefunctions read in
 
   number of l-projection  operators is LMAX  =            4
   number of lm-projection operators is LMMAX =            8
 
 POTCAR:    PAW_PBE O_h 06Feb2004                 
   VRHFIN =O: s2p4                                                                                  
   LEXCH  = PE                                                                                      
   EATOM  =   432.3788 eV,   31.7789 Ry                                                             
                                                                                                    
   TITEL  = PAW_PBE O_h 06Feb2004                                                                   
   LULTRA =        F    use ultrasoft PP ?                                                          
   IUNSCR =        1    unscreen: 0-lin 1-nonlin 2-no                                               
   RPACOR =    0.800    partial core radius                                                         
   POMASS =   16.000; ZVAL   =    6.000    mass and valenz                                          
   RCORE  =    1.100    outmost cutoff radius                                                       
   RWIGS  =    1.400; RWIGS  =    0.741    wigner-seitz radius (au A)                               
   ENMAX  =  700.000; ENMIN  =  500.000 eV                                                          
   ICORE  =        2    local potential                                                             
   LCOR   =        T    correct aug charges                                                         
   LPAW   =        T    paw PP                                                                      
   EAUG   =  888.804                                                                                
   DEXC   =    0.000                                                                                
   RMAX   =    1.128    core radius for proj-oper                                                   
   RAUG   =    1.300    factor for augmentation sphere                                              
   RDEP   =    1.125    radius for radial grids                                                     
   RDEPT  =    1.088    core radius for aug-charge                                                  
                                                                                                    
   Atomic configuration                                                                             
    4 entries                                                                                       
     n  l   j            E        occ.                                                              
     1  0  0.50      -514.6923   2.0000                                                             
     2  0  0.50       -23.9615   2.0000                                                             
     2  1  0.50        -9.0305   4.0000                                                             
     3  2  1.50        -9.5241   0.0000                                                             
   Description                                                                                      
     l       E           TYP  RCUT    TYP  RCUT                                                     
     0    -23.9615319     23  1.100                                                                 
     0    -25.3221145     23  1.100                                                                 
     1     -9.0304911     23  1.100                                                                 
     1     -5.4802209     23  1.100                                                                 
     2     -9.5240782      7  1.100                                                                 
  local pseudopotential read in
  partial core-charges read in
  partial kinetic energy density read in
  atomic valenz-charges read in
  non local Contribution for L=            0  read in
    real space projection operators read in
  non local Contribution for L=            0  read in
    real space projection operators read in
  non local Contribution for L=            1  read in
    real space projection operators read in
  non local Contribution for L=            1  read in
    real space projection operators read in
    PAW grid and wavefunctions read in
 
   number of l-projection  operators is LMAX  =            4
   number of lm-projection operators is LMMAX =            8
 
  PAW_PBE H_h 06Feb2004                 :
 energy of atom  1       EATOM=  -12.4884
 kinetic energy error for atom=    0.0006 (will be added to EATOM!!)
  PAW_PBE C_h 06Feb2004                 :
 energy of atom  2       EATOM= -147.1560
 kinetic energy error for atom=    0.0031 (will be added to EATOM!!)
  PAW_PBE O_h 06Feb2004                 :
 energy of atom  3       EATOM= -432.3788
 kinetic energy error for atom=    0.0171 (will be added to EATOM!!)
 
 
 POSCAR:  H  C  O
  positions in cartesian coordinates
  No initial velocities read in
 exchange correlation table for  LEXCH =        8
   RHO(1)=    0.500       N(1)  =     2000
   RHO(2)=  100.500       N(2)  =     4000
 


--------------------------------------------------------------------------------------------------------


 ion  position               nearest neighbor table
   1  0.001  0.120  0.978-   6 0.96
   2  0.000  0.122  0.021-   6 0.96
   3  0.000  0.003  0.000-   4 1.17   5 1.17
   4  0.000  0.036  0.000-   3 1.17
   5  0.000  0.969  0.000-   3 1.17
   6  0.000  0.105  0.000-   2 0.96   1 0.96
 
  LATTYP: Found a simple cubic cell.
 ALAT       =    35.0000000000
  
  Lattice vectors:
  
 A1 = (  35.0000000000,   0.0000000000,   0.0000000000)
 A2 = (   0.0000000000,  35.0000000000,   0.0000000000)
 A3 = (   0.0000000000,   0.0000000000,  35.0000000000)


Analysis of symmetry for initial positions (statically):
=====================================================================
 Subroutine PRICEL returns:
 Original cell was already a primitive cell.
 

 Routine SETGRP: Setting up the symmetry group for a 
 simple cubic supercell.


 Subroutine GETGRP returns: Found  1 space group operations
 (whereof  1 operations were pure point group operations)
 out of a pool of 48 trial point group operations.


The static configuration has the point symmetry C_1 .


Analysis of symmetry for dynamics (positions and initial velocities):
=====================================================================
 Subroutine PRICEL returns:
 Original cell was already a primitive cell.
 

 Routine SETGRP: Setting up the symmetry group for a 
 simple cubic supercell.


 Subroutine GETGRP returns: Found  1 space group operations
 (whereof  1 operations were pure point group operations)
 out of a pool of 48 trial point group operations.


The dynamic configuration has the point symmetry C_1 .


 Subroutine INISYM returns: Found  1 space group operations
 (whereof  1 operations are pure point group operations),
 and found     1 'primitive' translations


----------------------------------------------------------------------------------------

                                     Primitive cell                                     

  volume of cell :   42875.0000

  direct lattice vectors                    reciprocal lattice vectors
    35.000000000  0.000000000  0.000000000     0.028571429  0.000000000  0.000000000
     0.000000000 35.000000000  0.000000000     0.000000000  0.028571429  0.000000000
     0.000000000  0.000000000 35.000000000     0.000000000  0.000000000  0.028571429

  length of vectors
    35.000000000 35.000000000 35.000000000     0.028571429  0.028571429  0.028571429

  position of ions in fractional coordinates (direct lattice)
     0.000848682  0.120361356  0.977571084
     0.000390051  0.122415529  0.020841195
     0.000000000  0.002521600  0.000000000
     0.000000000  0.035956457  0.000000000
     0.000000000  0.969086743  0.000000000
     0.000000000  0.104527886  0.000000000

  ion indices of the primitive-cell ions
   primitive index   ion index
                 1           1
                 2           2
                 3           3
                 4           4
                 5           5
                 6           6

----------------------------------------------------------------------------------------

 
 
 KPOINTS: g                                       

Automatic generation of k-mesh.
Space group operators:
 irot       det(A)        alpha          n_x          n_y          n_z        tau_x        tau_y        tau_z
    1     1.000000     0.000000     1.000000     0.000000     0.000000     0.000000     0.000000     0.000000
 
 Subroutine IBZKPT returns following result:
 ===========================================
 
 Found      1 irreducible k-points:
 
 Following reciprocal coordinates:
            Coordinates               Weight
  0.000000  0.000000  0.000000      1.000000
 
 Following cartesian coordinates:
            Coordinates               Weight
  0.000000  0.000000  0.000000      1.000000
 


--------------------------------------------------------------------------------------------------------




 Dimension of arrays:
   k-points           NKPTS =      1   k-points in BZ     NKDIM =      1   number of bands    NBANDS=     32
   number of dos      NEDOS =    301   number of ions     NIONS =      6
   non local maximal  LDIM  =      4   non local SUM 2l+1 LMDIM =      8
   total plane-waves  NPLWV = ******
   max r-space proj   IRMAX =      1   max aug-charges    IRDMAX=   9386
   dimension x,y,z NGX =   378 NGY =  378 NGZ =  378
   dimension x,y,z NGXF=   756 NGYF=  756 NGZF=  756
   support grid    NGXF=   756 NGYF=  756 NGZF=  756
   ions per type =               2   1   3
   NGX,Y,Z   is equivalent  to a cutoff of  17.95, 17.95, 17.95 a.u.
   NGXF,Y,Z  is equivalent  to a cutoff of  35.91, 35.91, 35.91 a.u.

 SYSTEM =  C                                       
 POSCAR =   H  C  O                                

 Startparameter for this run:
   NWRITE =      2    write-flag & timer
   PREC   = acc       normal or accurate (medium, high low for compatibility)
   ISTART =      0    job   : 0-new  1-cont  2-samecut
   ICHARG =      2    charge: 1-file 2-atom 10-const
   ISPIN  =      1    spin polarized calculation?
   LNONCOLLINEAR =      F non collinear calculations
   LSORBIT =      F    spin-orbit coupling
   INIWAV =      1    electr: 0-lowe 1-rand  2-diag
   LASPH  =      T    aspherical Exc in radial PAW
   METAGGA=      F    non-selfconsistent MetaGGA calc.

 Electronic Relaxation 1
   ENCUT  = 1000.0 eV  73.50 Ry    8.57 a.u.  90.25 90.25 90.25*2*pi/ulx,y,z
   ENINI  = 1000.0     initial cutoff
   ENAUG  = 1000.0 eV  augmentation charge cutoff
   NELM   =     60;   NELMIN=  2; NELMDL= -5     # of ELM steps 
   EDIFF  = 0.1E-06   stopping-criterion for ELM
   LREAL  =      F    real-space projection
   NLSPLINE    = F    spline interpolate recip. space projectors
   LCOMPAT=      F    compatible to vasp.4.4
   GGA_COMPAT  = T    GGA compatible to vasp.4.4-vasp.4.6
   LMAXPAW     = -100 max onsite density
   LMAXMIX     =    2 max onsite mixed and CHGCAR
   VOSKOWN=      0    Vosko Wilk Nusair interpolation
   ROPT   =    0.00000   0.00000   0.00000
 Ionic relaxation
   EDIFFG = 0.1E-05   stopping-criterion for IOM
   NSW    =      0    number of steps for IOM
   NBLOCK =      1;   KBLOCK =      1    inner block; outer block 
   IBRION =     -1    ionic relax: 0-MD 1-quasi-New 2-CG
   NFREE  =      0    steps in history (QN), initial steepest desc. (CG)
   ISIF   =      2    stress and relaxation
   IWAVPR =     10    prediction:  0-non 1-charg 2-wave 3-comb
   ISYM   =      2    0-nonsym 1-usesym 2-fastsym
   LCORR  =      T    Harris-Foulkes like correction to forces

   POTIM  = 0.5000    time-step for ionic-motion
   TEIN   =    0.0    initial temperature
   TEBEG  =    0.0;   TEEND  =   0.0 temperature during run
   SMASS  =  -3.00    Nose mass-parameter (am)
   estimated Nose-frequenzy (Omega)   =  0.10E-29 period in steps = 0.13E+47 mass=  -0.280E-25a.u.
   SCALEE = 1.0000    scale energy and forces
   NPACO  =    256;   APACO  = 16.0  distance and # of slots for P.C.
   PSTRESS=    0.0 pullay stress

  Mass of Ions in am
   POMASS =   1.00 12.01 16.00
  Ionic Valenz
   ZVAL   =   1.00  4.00  6.00
  Atomic Wigner-Seitz radii
   RWIGS  =  -1.00 -1.00 -1.00
  virtual crystal weights 
   VCA    =   1.00  1.00  1.00
   NELECT =      24.0000    total number of electrons
   NUPDOWN=      -1.0000    fix difference up-down

 DOS related values:
   EMIN   =  10.00;   EMAX   =-10.00  energy-range for DOS
   EFERMI =   0.00
   ISMEAR =     0;   SIGMA  =   0.01  broadening in eV -4-tet -1-fermi 0-gaus

 Electronic relaxation 2 (details)
   IALGO  =     38    algorithm
   LDIAG  =      T    sub-space diagonalisation (order eigenvalues)
   LSUBROT=      F    optimize rotation matrix (better conditioning)
   TURBO    =      0    0=normal 1=particle mesh
   IRESTART =      0    0=no restart 2=restart with 2 vectors
   NREBOOT  =      0    no. of reboots
   NMIN     =      0    reboot dimension
   EREF     =   0.00    reference energy to select bands
   IMIX   =      4    mixing-type and parameters
     AMIX     =   0.40;   BMIX     =  1.00
     AMIX_MAG =   1.60;   BMIX_MAG =  1.00
     AMIN     =   0.10
     WC   =   100.;   INIMIX=   1;  MIXPRE=   1;  MAXMIX= -45

 Intra band minimization:
   WEIMIN = 0.0000     energy-eigenvalue tresh-hold
   EBREAK =  0.78E-09  absolut break condition
   DEPER  =   0.30     relativ break condition  

   TIME   =   0.40     timestep for ELM

  volume/ion in A,a.u.               =    7145.83     48222.46
  Fermi-wavevector in a.u.,A,eV,Ry     =   0.134920  0.254962  0.247673  0.018203
  Thomas-Fermi vector in A             =   0.783236
 
 Write flags
   LWAVE        =      T    write WAVECAR
   LDOWNSAMPLE  =      F    k-point downsampling of WAVECAR
   LCHARG       =      T    write CHGCAR
   LVTOT        =      F    write LOCPOT, total local potential
   LVHAR        =      F    write LOCPOT, Hartree potential only
   LELF         =      F    write electronic localiz. function (ELF)
   LORBIT       =      0    0 simple, 1 ext, 2 COOP (PROOUT), +10 PAW based schemes


 Dipole corrections
   LMONO  =      F    monopole corrections only (constant potential shift)
   LDIPOL =      F    correct potential (dipole corrections)
   IDIPOL =      4    1-x, 2-y, 3-z, 4-all directions 
   EPSILON=  1.0000000 bulk dielectric constant

 Exchange correlation treatment:
   GGA     =    --    GGA type
   LEXCH   =     8    internal setting for exchange type
   VOSKOWN=      0    Vosko Wilk Nusair interpolation
   LHFCALC =     F    Hartree Fock is set to
   LHFONE  =     F    Hartree Fock one center treatment
   AEXX    =    0.0000 exact exchange contribution

 Linear response parameters
   LEPSILON=     F    determine dielectric tensor
   LRPA    =     F    only Hartree local field effects (RPA)
   LNABLA  =     F    use nabla operator in PAW spheres
   LVEL    =     F    velocity operator in full k-point grid
   LINTERFAST=   F  fast interpolation
   KINTER  =     0    interpolate to denser k-point grid
   CSHIFT  =0.1000    complex shift for real part using Kramers Kronig
   OMEGAMAX=  -1.0    maximum frequency
   DEG_THRESHOLD= 0.2000000E-02 threshold for treating states as degnerate
   RTIME   =   -0.100 relaxation time in fs
  (WPLASMAI=    0.000 imaginary part of plasma frequency in eV, 0.658/RTIME)
   DFIELD  = 0.0000000 0.0000000 0.0000000 field for delta impulse in time
 
 Orbital magnetization related:
   ORBITALMAG=     F  switch on orbital magnetization
   LCHIMAG   =     F  perturbation theory with respect to B field
   DQ        =  0.001000  dq finite difference perturbation B field
   LLRAUG    =     F  two centre corrections for induced B field



--------------------------------------------------------------------------------------------------------


 Static calculation
 charge density and potential will be updated during run
 non-spin polarized calculation
 Variant of blocked Davidson
 Davidson routine will perform the subspace rotation
 perform sub-space diagonalisation
    after iterative eigenvector-optimisation
 modified Broyden-mixing scheme, WC =      100.0
 initial mixing is a Kerker type mixing with AMIX =  0.4000 and BMIX =      1.0000
 Hartree-type preconditioning will be used
 using additional bands            20
 reciprocal scheme for non local part
 use partial core corrections
 calculate Harris-corrections to forces 
   (improved forces if not selfconsistent)
 use gradient corrections 
 use of overlap-Matrix (Vanderbilt PP)
 Gauss-broadening in eV      SIGMA  =   0.01


--------------------------------------------------------------------------------------------------------


  energy-cutoff  :     1000.00
  volume of cell :    42875.00
      direct lattice vectors                 reciprocal lattice vectors
    35.000000000  0.000000000  0.000000000     0.028571429  0.000000000  0.000000000
     0.000000000 35.000000000  0.000000000     0.000000000  0.028571429  0.000000000
     0.000000000  0.000000000 35.000000000     0.000000000  0.000000000  0.028571429

  length of vectors
    35.000000000 35.000000000 35.000000000     0.028571429  0.028571429  0.028571429


 
 k-points in units of 2pi/SCALE and weight: g                                       
   0.00000000  0.00000000  0.00000000       1.000
 
 k-points in reciprocal lattice and weights: g                                       
   0.00000000  0.00000000  0.00000000       1.000
 
 position of ions in fractional coordinates (direct lattice) 
   0.00084868  0.12036136  0.97757108
   0.00039005  0.12241553  0.02084119
   0.00000000  0.00252160  0.00000000
   0.00000000  0.03595646  0.00000000
   0.00000000  0.96908674  0.00000000
   0.00000000  0.10452789  0.00000000
 
 position of ions in cartesian coordinates  (Angst):
   0.02970387  4.21264746 34.21498793
   0.01365177  4.28454352  0.72944182
   0.00000000  0.08825600  0.00000000
   0.00000000  1.25847600  0.00000000
   0.00000000 33.91803600  0.00000000
   0.00000000  3.65847600  0.00000000
 


--------------------------------------------------------------------------------------------------------


 use serial FFT for orbitals x direction half grid
 k-point   1 :   0.0000 0.0000 0.0000  plane waves: 1539209

 maximum and minimum number of plane-waves per node :   1539209  1539209

 maximum number of plane-waves:   1539209
 maximum index in each direction: 
   IXMAX=   90   IYMAX=   90   IZMAX=   90
   IXMIN=    0   IYMIN=  -90   IZMIN=  -90


 serial   3D FFT for wavefunctions
 parallel 3D FFT for charge:
    minimum data exchange during FFTs selected (reduces bandwidth)


 total amount of memory used by VASP MPI-rank0  4216433. kBytes
=======================================================================

   base      :      30000. kBytes
   nonl-proj :     443298. kBytes
   fftplans  :     676185. kBytes
   grid      :    3042313. kBytes
   one-center:          9. kBytes
   wavefun   :      24628. kBytes
 
     INWAV:  cpu time    0.0000: real time    0.0000
 Broyden mixing: mesh for mixing (old mesh)
   NGX =181   NGY =181   NGZ =181
  (NGX  =756   NGY  =756   NGZ  =756)
  gives a total of ****** points

 initial charge density was supplied:
 charge density of overlapping atoms calculated
 number of electron      24.0000000 magnetization 
 keeping initial charge density in first step


--------------------------------------------------------------------------------------------------------


 Maximum index for augmentation-charges           522 (set IRDMAX)


--------------------------------------------------------------------------------------------------------


 First call to EWALD:  gamma=   0.051
 Maximum number of real-space cells 3x 3x 3
 Maximum number of reciprocal cells 3x 3x 3

    FEWALD:  cpu time    0.0013: real time    0.0013


--------------------------------------- Iteration      1(   1)  ---------------------------------------


    POTLOK:  cpu time   12.9645: real time   12.9960
    SETDIJ:  cpu time    0.0406: real time    0.0411
     EDDAV:  cpu time   20.3173: real time   20.3635
       DOS:  cpu time    0.0093: real time    0.0093
    --------------------------------------------
      LOOP:  cpu time   33.3317: real time   33.4100

 eigenvalue-minimisations  :   128
 total energy-change (2. order) : 0.2192709E+03  (-0.4354434E+03)
 number of electron      24.0000000 magnetization 
 augmentation part       24.0000000 magnetization 

 Free energy of the ion-electron system (eV)
  ---------------------------------------------------
  alpha Z        PSCENC =         0.03650749
  Ewald energy   TEWEN  =      1204.28003533
  -Hartree energ DENC   =     -2363.34379789
  -exchange      EXHF   =         0.00000000
  -V(xc)+E(xc)   XCENC  =        88.88230305
  PAW double counting   =      1157.32287951    -1155.71656308
  entropy T*S    EENTRO =        -0.01103060
  eigenvalues    EBANDS =      -181.39310222
  atomic energy  EATOM  =      1469.21367386
  Solvation  Ediel_sol  =         0.00000000
  ---------------------------------------------------
  free energy    TOTEN  =       219.27090544 eV

  energy without entropy =      219.28193604  energy(sigma->0) =      219.27642074


--------------------------------------------------------------------------------------------------------




--------------------------------------- Iteration      1(   2)  ---------------------------------------


     EDDAV:  cpu time   16.2665: real time   16.2989
       DOS:  cpu time    0.0105: real time    0.0105
    --------------------------------------------
      LOOP:  cpu time   16.2770: real time   16.3094

 eigenvalue-minimisations  :    96
 total energy-change (2. order) :-0.1178428E+03  (-0.1176779E+03)
 number of electron      24.0000000 magnetization 
 augmentation part       24.0000000 magnetization 

 Free energy of the ion-electron system (eV)
  ---------------------------------------------------
  alpha Z        PSCENC =         0.03650749
  Ewald energy   TEWEN  =      1204.28003533
  -Hartree energ DENC   =     -2363.34379789
  -exchange      EXHF   =         0.00000000
  -V(xc)+E(xc)   XCENC  =        88.88230305
  PAW double counting   =      1157.32287951    -1155.71656308
  entropy T*S    EENTRO =        -0.00000000
  eigenvalues    EBANDS =      -299.24693486
  atomic energy  EATOM  =      1469.21367386
  Solvation  Ediel_sol  =         0.00000000
  ---------------------------------------------------
  free energy    TOTEN  =       101.42810339 eV

  energy without entropy =      101.42810339  energy(sigma->0) =      101.42810339


--------------------------------------------------------------------------------------------------------




--------------------------------------- Iteration      1(   3)  ---------------------------------------


     EDDAV:  cpu time   20.3300: real time   20.3796
       DOS:  cpu time    0.0099: real time    0.0099
    --------------------------------------------
      LOOP:  cpu time   20.3400: real time   20.3895

 eigenvalue-minimisations  :   128
 total energy-change (2. order) :-0.1179006E+03  (-0.1179006E+03)
 number of electron      24.0000000 magnetization 
 augmentation part       24.0000000 magnetization 

 Free energy of the ion-electron system (eV)
  ---------------------------------------------------
  alpha Z        PSCENC =         0.03650749
  Ewald energy   TEWEN  =      1204.28003533
  -Hartree energ DENC   =     -2363.34379789
  -exchange      EXHF   =         0.00000000
  -V(xc)+E(xc)   XCENC  =        88.88230305
  PAW double counting   =      1157.32287951    -1155.71656308
  entropy T*S    EENTRO =        -0.00000000
  eigenvalues    EBANDS =      -417.14753493
  atomic energy  EATOM  =      1469.21367386
  Solvation  Ediel_sol  =         0.00000000
  ---------------------------------------------------
  free energy    TOTEN  =       -16.47249667 eV

  energy without entropy =      -16.47249667  energy(sigma->0) =      -16.47249667


--------------------------------------------------------------------------------------------------------




--------------------------------------- Iteration      1(   4)  ---------------------------------------


     EDDAV:  cpu time   12.2400: real time   12.2653
       DOS:  cpu time    0.0122: real time    0.0122
    --------------------------------------------
      LOOP:  cpu time   12.2522: real time   12.2775

 eigenvalue-minimisations  :    64
 total energy-change (2. order) :-0.2391291E+02  (-0.2391291E+02)
 number of electron      24.0000000 magnetization 
 augmentation part       24.0000000 magnetization 

 Free energy of the ion-electron system (eV)
  ---------------------------------------------------
  alpha Z        PSCENC =         0.03650749
  Ewald energy   TEWEN  =      1204.28003533
  -Hartree energ DENC   =     -2363.34379789
  -exchange      EXHF   =         0.00000000
  -V(xc)+E(xc)   XCENC  =        88.88230305
  PAW double counting   =      1157.32287951    -1155.71656308
  entropy T*S    EENTRO =        -0.00000000
  eigenvalues    EBANDS =      -441.06044830
  atomic energy  EATOM  =      1469.21367386
  Solvation  Ediel_sol  =         0.00000000
  ---------------------------------------------------
  free energy    TOTEN  =       -40.38541004 eV

  energy without entropy =      -40.38541004  energy(sigma->0) =      -40.38541004


--------------------------------------------------------------------------------------------------------




--------------------------------------- Iteration      1(   5)  ---------------------------------------


     EDDAV:  cpu time   12.2659: real time   12.2978
       DOS:  cpu time    0.0122: real time    0.0122
    CHARGE:  cpu time    5.4477: real time    5.4559
    MIXING:  cpu time    0.2404: real time    0.2408
    --------------------------------------------
      LOOP:  cpu time   17.9662: real time   18.0067

 eigenvalue-minimisations  :    64
 total energy-change (2. order) :-0.7752313E+00  (-0.7752313E+00)
 number of electron      23.9999999 magnetization 
 augmentation part        0.2316646 magnetization 

 Broyden mixing:
  rms(total) = 0.36336E+01    rms(broyden)= 0.36335E+01
  rms(prec ) = 0.36443E+01
  weight for this iteration     100.00

 Free energy of the ion-electron system (eV)
  ---------------------------------------------------
  alpha Z        PSCENC =         0.03650749
  Ewald energy   TEWEN  =      1204.28003533
  -Hartree energ DENC   =     -2363.34379789
  -exchange      EXHF   =         0.00000000
  -V(xc)+E(xc)   XCENC  =        88.88230305
  PAW double counting   =      1157.32287951    -1155.71656308
  entropy T*S    EENTRO =        -0.00000000
  eigenvalues    EBANDS =      -441.83567959
  atomic energy  EATOM  =      1469.21367386
  Solvation  Ediel_sol  =         0.00000000
  ---------------------------------------------------
  free energy    TOTEN  =       -41.16064133 eV

  energy without entropy =      -41.16064133  energy(sigma->0) =      -41.16064133


--------------------------------------------------------------------------------------------------------




--------------------------------------- Iteration      1(   6)  ---------------------------------------


    POTLOK:  cpu time   12.7813: real time   12.8082
    SETDIJ:  cpu time    0.0401: real time    0.0401
     EDDAV:  cpu time   20.2668: real time   20.3219
       DOS:  cpu time    0.0291: real time    0.0291
    CHARGE:  cpu time    5.3718: real time    5.3880
    MIXING:  cpu time    0.2364: real time    0.2393
    --------------------------------------------
      LOOP:  cpu time   38.7255: real time   38.8265

 eigenvalue-minimisations  :   128
 total energy-change (2. order) : 0.3470107E+01  (-0.1712713E+01)
 number of electron      23.9999999 magnetization 
 augmentation part        0.1222222 magnetization 

 Broyden mixing:
  rms(total) = 0.31692E+01    rms(broyden)= 0.31692E+01
  rms(prec ) = 0.31704E+01
  weight for this iteration     100.00

 eigenvalues of (default mixing * dielectric matrix)
  average eigenvalue GAMMA=   1.2366
  1.2366

 Free energy of the ion-electron system (eV)
  ---------------------------------------------------
  alpha Z        PSCENC =         0.03650749
  Ewald energy   TEWEN  =      1204.28003533
  -Hartree energ DENC   =     -2415.35017612
  -exchange      EXHF   =         0.00000000
  -V(xc)+E(xc)   XCENC  =        91.66154616
  PAW double counting   =      3958.06384880    -3957.23855966
  entropy T*S    EENTRO =        -0.00000000
  eigenvalues    EBANDS =      -388.35740998
  atomic energy  EATOM  =      1469.21367386
  Solvation  Ediel_sol  =         0.00000000
  ---------------------------------------------------
  free energy    TOTEN  =       -37.69053412 eV

  energy without entropy =      -37.69053412  energy(sigma->0) =      -37.69053412


--------------------------------------------------------------------------------------------------------




--------------------------------------- Iteration      1(   7)  ---------------------------------------


    POTLOK:  cpu time   12.8230: real time   12.8451
    SETDIJ:  cpu time    0.0400: real time    0.0400
     EDDAV:  cpu time   12.3169: real time   12.3413
       DOS:  cpu time    0.0180: real time    0.0180
    CHARGE:  cpu time    5.3193: real time    5.3293
    MIXING:  cpu time    0.2515: real time    0.2528
    --------------------------------------------
      LOOP:  cpu time   30.7687: real time   30.8266

 eigenvalue-minimisations  :    64
 total energy-change (2. order) : 0.3031456E+00  (-0.3865476E-01)
 number of electron      23.9999999 magnetization 
 augmentation part        0.1282512 magnetization 

 Broyden mixing:
  rms(total) = 0.14010E+01    rms(broyden)= 0.14010E+01
  rms(prec ) = 0.14018E+01
  weight for this iteration     100.00

 eigenvalues of (default mixing * dielectric matrix)
  average eigenvalue GAMMA=   1.6145
  0.9555  2.2735

 Free energy of the ion-electron system (eV)
  ---------------------------------------------------
  alpha Z        PSCENC =         0.03650749
  Ewald energy   TEWEN  =      1204.28003533
  -Hartree energ DENC   =     -2428.53090738
  -exchange      EXHF   =         0.00000000
  -V(xc)+E(xc)   XCENC  =        92.24180537
  PAW double counting   =      8972.64452476    -8971.84316826
  entropy T*S    EENTRO =        -0.00000000
  eigenvalues    EBANDS =      -375.42985968
  atomic energy  EATOM  =      1469.21367386
  Solvation  Ediel_sol  =         0.00000000
  ---------------------------------------------------
  free energy    TOTEN  =       -37.38738852 eV

  energy without entropy =      -37.38738852  energy(sigma->0) =      -37.38738852


--------------------------------------------------------------------------------------------------------




--------------------------------------- Iteration      1(   8)  ---------------------------------------


    POTLOK:  cpu time   12.7861: real time   12.8078
    SETDIJ:  cpu time    0.0402: real time    0.0402
     EDDAV:  cpu time   12.2735: real time   12.2981
       DOS:  cpu time    0.0193: real time    0.0193
    CHARGE:  cpu time    5.3797: real time    5.3881
    MIXING:  cpu time    0.2546: real time    0.2550
    --------------------------------------------
      LOOP:  cpu time   30.7533: real time   30.8084

 eigenvalue-minimisations  :    64
 total energy-change (2. order) : 0.1150486E+00  (-0.2080318E-01)
 number of electron      23.9999999 magnetization 
 augmentation part        0.1227662 magnetization 

 Broyden mixing:
  rms(total) = 0.18577E+00    rms(broyden)= 0.18576E+00
  rms(prec ) = 0.18651E+00
  weight for this iteration     100.00

 eigenvalues of (default mixing * dielectric matrix)
  average eigenvalue GAMMA=   1.3804
  2.4462  0.8475  0.8475

 Free energy of the ion-electron system (eV)
  ---------------------------------------------------
  alpha Z        PSCENC =         0.03650749
  Ewald energy   TEWEN  =      1204.28003533
  -Hartree energ DENC   =     -2442.07564897
  -exchange      EXHF   =         0.00000000
  -V(xc)+E(xc)   XCENC  =        92.88553760
  PAW double counting   =     15046.29510200   -15045.52002325
  entropy T*S    EENTRO =        -0.00000000
  eigenvalues    EBANDS =      -362.38752401
  atomic energy  EATOM  =      1469.21367386
  Solvation  Ediel_sol  =         0.00000000
  ---------------------------------------------------
  free energy    TOTEN  =       -37.27233996 eV

  energy without entropy =      -37.27233996  energy(sigma->0) =      -37.27233996


--------------------------------------------------------------------------------------------------------




--------------------------------------- Iteration      1(   9)  ---------------------------------------


    POTLOK:  cpu time   12.8296: real time   12.8583
    SETDIJ:  cpu time    0.0400: real time    0.0400
     EDDAV:  cpu time   20.2730: real time   20.3231
       DOS:  cpu time    0.0194: real time    0.0194
    CHARGE:  cpu time    5.2861: real time    5.2943
    MIXING:  cpu time    0.2578: real time    0.2582
    --------------------------------------------
      LOOP:  cpu time   38.7058: real time   38.7932

 eigenvalue-minimisations  :   128
 total energy-change (2. order) : 0.4629179E-02  (-0.9535226E-03)
 number of electron      23.9999999 magnetization 
 augmentation part        0.1225835 magnetization 

 Broyden mixing:
  rms(total) = 0.11878E+00    rms(broyden)= 0.11878E+00
  rms(prec ) = 0.11946E+00
  weight for this iteration     100.00

 eigenvalues of (default mixing * dielectric matrix)
  average eigenvalue GAMMA=   1.5157
  2.4441  0.8845  1.3671  1.3671

 Free energy of the ion-electron system (eV)
  ---------------------------------------------------
  alpha Z        PSCENC =         0.03650749
  Ewald energy   TEWEN  =      1204.28003533
  -Hartree energ DENC   =     -2443.28807805
  -exchange      EXHF   =         0.00000000
  -V(xc)+E(xc)   XCENC  =        92.91232011
  PAW double counting   =     15722.78784361   -15721.99571239
  entropy T*S    EENTRO =        -0.00000000
  eigenvalues    EBANDS =      -361.21430072
  atomic energy  EATOM  =      1469.21367386
  Solvation  Ediel_sol  =         0.00000000
  ---------------------------------------------------
  free energy    TOTEN  =       -37.26771078 eV

  energy without entropy =      -37.26771078  energy(sigma->0) =      -37.26771078


--------------------------------------------------------------------------------------------------------




--------------------------------------- Iteration      1(  10)  ---------------------------------------


    POTLOK:  cpu time   12.8299: real time   12.8556
    SETDIJ:  cpu time    0.0400: real time    0.0400
     EDDAV:  cpu time   16.2448: real time   16.2776
       DOS:  cpu time    0.0304: real time    0.0304
    CHARGE:  cpu time    5.3336: real time    5.3421
    MIXING:  cpu time    0.3040: real time    0.3045
    --------------------------------------------
      LOOP:  cpu time   34.7827: real time   34.8502

 eigenvalue-minimisations  :    96
 total energy-change (2. order) :-0.8716892E-03  (-0.6091817E-03)
 number of electron      23.9999999 magnetization 
 augmentation part        0.1232373 magnetization 

 Broyden mixing:
  rms(total) = 0.55441E-01    rms(broyden)= 0.55441E-01
  rms(prec ) = 0.56042E-01
  weight for this iteration     100.00

 eigenvalues of (default mixing * dielectric matrix)
  average eigenvalue GAMMA=   1.5697
  2.5760  2.2562  1.3111  0.8527  0.8527

 Free energy of the ion-electron system (eV)
  ---------------------------------------------------
  alpha Z        PSCENC =         0.03650749
  Ewald energy   TEWEN  =      1204.28003533
  -Hartree energ DENC   =     -2444.18556457
  -exchange      EXHF   =         0.00000000
  -V(xc)+E(xc)   XCENC  =        92.89002570
  PAW double counting   =     15693.59748352   -15692.78122531
  entropy T*S    EENTRO =        -0.00000000
  eigenvalues    EBANDS =      -360.31951848
  atomic energy  EATOM  =      1469.21367386
  Solvation  Ediel_sol  =         0.00000000
  ---------------------------------------------------
  free energy    TOTEN  =       -37.26858247 eV

  energy without entropy =      -37.26858247  energy(sigma->0) =      -37.26858247


--------------------------------------------------------------------------------------------------------




--------------------------------------- Iteration      1(  11)  ---------------------------------------


    POTLOK:  cpu time   12.8799: real time   12.9022
    SETDIJ:  cpu time    0.0404: real time    0.0404
     EDDAV:  cpu time   16.2558: real time   16.2896
       DOS:  cpu time    0.0227: real time    0.0227
    CHARGE:  cpu time    5.2789: real time    5.2879
    MIXING:  cpu time    0.2941: real time    0.2969
    --------------------------------------------
      LOOP:  cpu time   34.7719: real time   34.8397

 eigenvalue-minimisations  :    96
 total energy-change (2. order) :-0.2242040E-02  (-0.1561616E-03)
 number of electron      23.9999999 magnetization 
 augmentation part        0.1228054 magnetization 

 Broyden mixing:
  rms(total) = 0.19424E-01    rms(broyden)= 0.19424E-01
  rms(prec ) = 0.20243E-01
  weight for this iteration     100.00

 eigenvalues of (default mixing * dielectric matrix)
  average eigenvalue GAMMA=   1.5019
  2.3834  2.3834  1.2213  1.2213  0.9011  0.9011

 Free energy of the ion-electron system (eV)
  ---------------------------------------------------
  alpha Z        PSCENC =         0.03650749
  Ewald energy   TEWEN  =      1204.28003533
  -Hartree energ DENC   =     -2445.62897535
  -exchange      EXHF   =         0.00000000
  -V(xc)+E(xc)   XCENC  =        92.91359387
  PAW double counting   =     15660.81580043   -15659.99688549
  entropy T*S    EENTRO =        -0.00000000
  eigenvalues    EBANDS =      -358.90457465
  atomic energy  EATOM  =      1469.21367386
  Solvation  Ediel_sol  =         0.00000000
  ---------------------------------------------------
  free energy    TOTEN  =       -37.27082451 eV

  energy without entropy =      -37.27082451  energy(sigma->0) =      -37.27082451


--------------------------------------------------------------------------------------------------------




--------------------------------------- Iteration      1(  12)  ---------------------------------------


    POTLOK:  cpu time   12.8728: real time   12.9022
    SETDIJ:  cpu time    0.0400: real time    0.0400
     EDDAV:  cpu time   20.3041: real time   20.3483
       DOS:  cpu time    0.0280: real time    0.0280
    CHARGE:  cpu time    5.3768: real time    5.3862
    MIXING:  cpu time    0.2731: real time    0.2736
    --------------------------------------------
      LOOP:  cpu time   38.8948: real time   38.9783

 eigenvalue-minimisations  :   128
 total energy-change (2. order) :-0.2013594E-02  (-0.1758091E-04)
 number of electron      23.9999999 magnetization 
 augmentation part        0.1227988 magnetization 

 Broyden mixing:
  rms(total) = 0.85022E-02    rms(broyden)= 0.85021E-02
  rms(prec ) = 0.98730E-02
  weight for this iteration     100.00

 eigenvalues of (default mixing * dielectric matrix)
  average eigenvalue GAMMA=   1.6239
  2.7145  2.7145  1.6124  1.6124  0.9893  0.8398  0.8844

 Free energy of the ion-electron system (eV)
  ---------------------------------------------------
  alpha Z        PSCENC =         0.03650749
  Ewald energy   TEWEN  =      1204.28003533
  -Hartree energ DENC   =     -2446.03819586
  -exchange      EXHF   =         0.00000000
  -V(xc)+E(xc)   XCENC  =        92.91641321
  PAW double counting   =     15579.21495133   -15578.39665498
  entropy T*S    EENTRO =        -0.00000000
  eigenvalues    EBANDS =      -358.49956847
  atomic energy  EATOM  =      1469.21367386
  Solvation  Ediel_sol  =         0.00000000
  ---------------------------------------------------
  free energy    TOTEN  =       -37.27283810 eV

  energy without entropy =      -37.27283810  energy(sigma->0) =      -37.27283810


--------------------------------------------------------------------------------------------------------




--------------------------------------- Iteration      1(  13)  ---------------------------------------


    POTLOK:  cpu time   12.8567: real time   12.8787
    SETDIJ:  cpu time    0.0402: real time    0.0402
     EDDAV:  cpu time   16.2115: real time   16.2469
       DOS:  cpu time    0.0203: real time    0.0204
    CHARGE:  cpu time    5.3662: real time    5.3744
    MIXING:  cpu time    0.2835: real time    0.2841
    --------------------------------------------
      LOOP:  cpu time   34.7783: real time   34.8446

 eigenvalue-minimisations  :    96
 total energy-change (2. order) :-0.3360043E-02  (-0.8241075E-04)
 number of electron      23.9999999 magnetization 
 augmentation part        0.1226074 magnetization 

 Broyden mixing:
  rms(total) = 0.52438E-02    rms(broyden)= 0.52438E-02
  rms(prec ) = 0.60981E-02
  weight for this iteration     100.00

 eigenvalues of (default mixing * dielectric matrix)
  average eigenvalue GAMMA=   1.5234
  2.8851  2.5956  1.6643  1.6643  0.9957  0.9292  0.8028  0.6498

 Free energy of the ion-electron system (eV)
  ---------------------------------------------------
  alpha Z        PSCENC =         0.03650749
  Ewald energy   TEWEN  =      1204.28003533
  -Hartree energ DENC   =     -2447.34797470
  -exchange      EXHF   =         0.00000000
  -V(xc)+E(xc)   XCENC  =        92.93565437
  PAW double counting   =     15557.80901442   -15556.99040487
  entropy T*S    EENTRO =        -0.00000000
  eigenvalues    EBANDS =      -357.21270403
  atomic energy  EATOM  =      1469.21367386
  Solvation  Ediel_sol  =         0.00000000
  ---------------------------------------------------
  free energy    TOTEN  =       -37.27619815 eV

  energy without entropy =      -37.27619815  energy(sigma->0) =      -37.27619815


--------------------------------------------------------------------------------------------------------




--------------------------------------- Iteration      1(  14)  ---------------------------------------


    POTLOK:  cpu time   12.8743: real time   12.8962
    SETDIJ:  cpu time    0.0400: real time    0.0400
     EDDAV:  cpu time   16.2224: real time   16.2540
       DOS:  cpu time    0.0132: real time    0.0132
    CHARGE:  cpu time    5.3104: real time    5.3226
    MIXING:  cpu time    0.2977: real time    0.3000
    --------------------------------------------
      LOOP:  cpu time   34.7579: real time   34.8260

 eigenvalue-minimisations  :    96
 total energy-change (2. order) :-0.1483342E-02  (-0.1213309E-04)
 number of electron      23.9999999 magnetization 
 augmentation part        0.1225106 magnetization 

 Broyden mixing:
  rms(total) = 0.29310E-02    rms(broyden)= 0.29310E-02
  rms(prec ) = 0.38482E-02
  weight for this iteration     100.00

 eigenvalues of (default mixing * dielectric matrix)
  average eigenvalue GAMMA=   1.7133
  3.7869  2.5042  2.0021  2.0021  1.5630  0.9550  0.9340  0.8360  0.8360

 Free energy of the ion-electron system (eV)
  ---------------------------------------------------
  alpha Z        PSCENC =         0.03650749
  Ewald energy   TEWEN  =      1204.28003533
  -Hartree energ DENC   =     -2447.78610869
  -exchange      EXHF   =         0.00000000
  -V(xc)+E(xc)   XCENC  =        92.94152359
  PAW double counting   =     15571.13846914   -15570.31975007
  entropy T*S    EENTRO =        -0.00000000
  eigenvalues    EBANDS =      -356.78203212
  atomic energy  EATOM  =      1469.21367386
  Solvation  Ediel_sol  =         0.00000000
  ---------------------------------------------------
  free energy    TOTEN  =       -37.27768149 eV

  energy without entropy =      -37.27768149  energy(sigma->0) =      -37.27768149


--------------------------------------------------------------------------------------------------------




--------------------------------------- Iteration      1(  15)  ---------------------------------------


    POTLOK:  cpu time   12.8183: real time   12.8405
    SETDIJ:  cpu time    0.0400: real time    0.0400
     EDDAV:  cpu time   16.1820: real time   16.2131
       DOS:  cpu time    0.0161: real time    0.0161
    CHARGE:  cpu time    5.3758: real time    5.3838
    MIXING:  cpu time    0.3177: real time    0.3182
    --------------------------------------------
      LOOP:  cpu time   34.7498: real time   34.8118

 eigenvalue-minimisations  :    96
 total energy-change (2. order) :-0.3508115E-02  (-0.4101645E-04)
 number of electron      23.9999999 magnetization 
 augmentation part        0.1224414 magnetization 

 Broyden mixing:
  rms(total) = 0.33250E-02    rms(broyden)= 0.33250E-02
  rms(prec ) = 0.35335E-02
  weight for this iteration     100.00

 eigenvalues of (default mixing * dielectric matrix)
  average eigenvalue GAMMA=   1.8271
  5.4713  2.5669  2.5669  1.6200  1.6200  0.9747  0.9747  0.8701  0.8701  0.7366

 Free energy of the ion-electron system (eV)
  ---------------------------------------------------
  alpha Z        PSCENC =         0.03650749
  Ewald energy   TEWEN  =      1204.28003533
  -Hartree energ DENC   =     -2448.59479207
  -exchange      EXHF   =         0.00000000
  -V(xc)+E(xc)   XCENC  =        92.94570764
  PAW double counting   =     15567.65028694   -15566.83003482
  entropy T*S    EENTRO =        -0.00000000
  eigenvalues    EBANDS =      -355.98257397
  atomic energy  EATOM  =      1469.21367386
  Solvation  Ediel_sol  =         0.00000000
  ---------------------------------------------------
  free energy    TOTEN  =       -37.28118960 eV

  energy without entropy =      -37.28118960  energy(sigma->0) =      -37.28118960


--------------------------------------------------------------------------------------------------------




--------------------------------------- Iteration      1(  16)  ---------------------------------------


    POTLOK:  cpu time   12.9078: real time   12.9315
    SETDIJ:  cpu time    0.0401: real time    0.0401
     EDDAV:  cpu time   20.2706: real time   20.3183
       DOS:  cpu time    0.0210: real time    0.0210
    CHARGE:  cpu time    5.3177: real time    5.3258
    MIXING:  cpu time    0.3484: real time    0.3490
    --------------------------------------------
      LOOP:  cpu time   38.9055: real time   38.9857

 eigenvalue-minimisations  :   128
 total energy-change (2. order) :-0.1264164E-02  (-0.1104355E-04)
 number of electron      23.9999999 magnetization 
 augmentation part        0.1224165 magnetization 

 Broyden mixing:
  rms(total) = 0.14312E-02    rms(broyden)= 0.14312E-02
  rms(prec ) = 0.16123E-02
  weight for this iteration     100.00

 eigenvalues of (default mixing * dielectric matrix)
  average eigenvalue GAMMA=   1.7719
  5.5353  2.5966  2.4961  1.5651  1.5651  1.1910  1.1910  0.9178  0.8416  0.8416
  0.7495

 Free energy of the ion-electron system (eV)
  ---------------------------------------------------
  alpha Z        PSCENC =         0.03650749
  Ewald energy   TEWEN  =      1204.28003533
  -Hartree energ DENC   =     -2448.91094071
  -exchange      EXHF   =         0.00000000
  -V(xc)+E(xc)   XCENC  =        92.94720288
  PAW double counting   =     15567.52646758   -15566.70586724
  entropy T*S    EENTRO =        -0.00000000
  eigenvalues    EBANDS =      -355.66953295
  atomic energy  EATOM  =      1469.21367386
  Solvation  Ediel_sol  =         0.00000000
  ---------------------------------------------------
  free energy    TOTEN  =       -37.28245377 eV

  energy without entropy =      -37.28245377  energy(sigma->0) =      -37.28245377


--------------------------------------------------------------------------------------------------------




--------------------------------------- Iteration      1(  17)  ---------------------------------------


    POTLOK:  cpu time   12.8207: real time   12.8426
    SETDIJ:  cpu time    0.0400: real time    0.0400
     EDDAV:  cpu time   20.2606: real time   20.3010
       DOS:  cpu time    0.0098: real time    0.0098
    CHARGE:  cpu time    5.3192: real time    5.3275
    MIXING:  cpu time    0.3171: real time    0.3177
    --------------------------------------------
      LOOP:  cpu time   38.7674: real time   38.8386

 eigenvalue-minimisations  :   128
 total energy-change (2. order) :-0.6225591E-03  (-0.1437269E-05)
 number of electron      23.9999999 magnetization 
 augmentation part        0.1224193 magnetization 

 Broyden mixing:
  rms(total) = 0.88914E-03    rms(broyden)= 0.88914E-03
  rms(prec ) = 0.10712E-02
  weight for this iteration     100.00

 eigenvalues of (default mixing * dielectric matrix)
  average eigenvalue GAMMA=   1.9583
  6.7660  3.1504  2.6117  2.1871  1.7308  1.7308  1.1453  0.9106  0.8517  0.8517
  0.7819  0.7819

 Free energy of the ion-electron system (eV)
  ---------------------------------------------------
  alpha Z        PSCENC =         0.03650749
  Ewald energy   TEWEN  =      1204.28003533
  -Hartree energ DENC   =     -2448.93947714
  -exchange      EXHF   =         0.00000000
  -V(xc)+E(xc)   XCENC  =        92.94597776
  PAW double counting   =     15564.11986751   -15563.29920417
  entropy T*S    EENTRO =        -0.00000000
  eigenvalues    EBANDS =      -355.64045696
  atomic energy  EATOM  =      1469.21367386
  Solvation  Ediel_sol  =         0.00000000
  ---------------------------------------------------
  free energy    TOTEN  =       -37.28307633 eV

  energy without entropy =      -37.28307633  energy(sigma->0) =      -37.28307633


--------------------------------------------------------------------------------------------------------




--------------------------------------- Iteration      1(  18)  ---------------------------------------


    POTLOK:  cpu time   12.8783: real time   12.8996
    SETDIJ:  cpu time    0.0400: real time    0.0400
     EDDAV:  cpu time   20.2763: real time   20.3195
       DOS:  cpu time    0.0191: real time    0.0191
    CHARGE:  cpu time    5.2888: real time    5.2969
    MIXING:  cpu time    0.3679: real time    0.3686
    --------------------------------------------
      LOOP:  cpu time   38.8705: real time   38.9437

 eigenvalue-minimisations  :   128
 total energy-change (2. order) :-0.1294130E-02  (-0.1019699E-04)
 number of electron      23.9999999 magnetization 
 augmentation part        0.1224104 magnetization 

 Broyden mixing:
  rms(total) = 0.74324E-03    rms(broyden)= 0.74324E-03
  rms(prec ) = 0.77894E-03
  weight for this iteration     100.00

 eigenvalues of (default mixing * dielectric matrix)
  average eigenvalue GAMMA=   1.9669
  7.4214  3.6615  2.4630  2.4630  1.6086  1.6086  0.9523  0.9523  0.9725  0.9725
  0.8316  0.8313  0.8313

 Free energy of the ion-electron system (eV)
  ---------------------------------------------------
  alpha Z        PSCENC =         0.03650749
  Ewald energy   TEWEN  =      1204.28003533
  -Hartree energ DENC   =     -2449.04434819
  -exchange      EXHF   =         0.00000000
  -V(xc)+E(xc)   XCENC  =        92.94402419
  PAW double counting   =     15561.13358020   -15560.31288172
  entropy T*S    EENTRO =        -0.00000000
  eigenvalues    EBANDS =      -355.53496161
  atomic energy  EATOM  =      1469.21367386
  Solvation  Ediel_sol  =         0.00000000
  ---------------------------------------------------
  free energy    TOTEN  =       -37.28437046 eV

  energy without entropy =      -37.28437046  energy(sigma->0) =      -37.28437046


--------------------------------------------------------------------------------------------------------




--------------------------------------- Iteration      1(  19)  ---------------------------------------


    POTLOK:  cpu time   12.8642: real time   12.8860
    SETDIJ:  cpu time    0.0401: real time    0.0401
     EDDAV:  cpu time   20.2588: real time   20.3046
       DOS:  cpu time    0.0242: real time    0.0242
    CHARGE:  cpu time    5.3204: real time    5.3294
    MIXING:  cpu time    0.3471: real time    0.3477
    --------------------------------------------
      LOOP:  cpu time   38.8549: real time   38.9321

 eigenvalue-minimisations  :   128
 total energy-change (2. order) :-0.1948127E-03  (-0.4193255E-06)
 number of electron      23.9999999 magnetization 
 augmentation part        0.1224082 magnetization 

 Broyden mixing:
  rms(total) = 0.50082E-03    rms(broyden)= 0.50082E-03
  rms(prec ) = 0.52933E-03
  weight for this iteration     100.00

 eigenvalues of (default mixing * dielectric matrix)
  average eigenvalue GAMMA=   1.9329
  7.6215  3.9215  2.4658  2.4658  1.5605  1.5605  1.1228  1.1228  1.0712  0.8963
  0.8571  0.8571  0.7692  0.7692

 Free energy of the ion-electron system (eV)
  ---------------------------------------------------
  alpha Z        PSCENC =         0.03650749
  Ewald energy   TEWEN  =      1204.28003533
  -Hartree energ DENC   =     -2449.05001720
  -exchange      EXHF   =         0.00000000
  -V(xc)+E(xc)   XCENC  =        92.94329163
  PAW double counting   =     15560.13887216   -15559.31814175
  entropy T*S    EENTRO =        -0.00000000
  eigenvalues    EBANDS =      -355.52878679
  atomic energy  EATOM  =      1469.21367386
  Solvation  Ediel_sol  =         0.00000000
  ---------------------------------------------------
  free energy    TOTEN  =       -37.28456527 eV

  energy without entropy =      -37.28456527  energy(sigma->0) =      -37.28456527


--------------------------------------------------------------------------------------------------------




--------------------------------------- Iteration      1(  20)  ---------------------------------------


    POTLOK:  cpu time   12.8526: real time   12.8825
    SETDIJ:  cpu time    0.0401: real time    0.0401
     EDDAV:  cpu time   16.1537: real time   16.1954
       DOS:  cpu time    0.0123: real time    0.0123
    CHARGE:  cpu time    5.2985: real time    5.3154
    MIXING:  cpu time    0.3733: real time    0.3740
    --------------------------------------------
      LOOP:  cpu time   34.7306: real time   34.8197

 eigenvalue-minimisations  :    96
 total energy-change (2. order) :-0.1223313E-03  (-0.1507255E-06)
 number of electron      23.9999999 magnetization 
 augmentation part        0.1224093 magnetization 

 Broyden mixing:
  rms(total) = 0.16281E-03    rms(broyden)= 0.16281E-03
  rms(prec ) = 0.21012E-03
  weight for this iteration     100.00

 eigenvalues of (default mixing * dielectric matrix)
  average eigenvalue GAMMA=   2.1030
  8.3493  4.8676  2.9742  2.3906  2.3906  1.6502  1.6502  0.9458  0.9458  1.0692
  0.9601  0.8151  0.8151  0.8607  0.8607

 Free energy of the ion-electron system (eV)
  ---------------------------------------------------
  alpha Z        PSCENC =         0.03650749
  Ewald energy   TEWEN  =      1204.28003533
  -Hartree energ DENC   =     -2449.05014817
  -exchange      EXHF   =         0.00000000
  -V(xc)+E(xc)   XCENC  =        92.94291263
  PAW double counting   =     15560.99304166   -15560.17229278
  entropy T*S    EENTRO =        -0.00000000
  eigenvalues    EBANDS =      -355.52841762
  atomic energy  EATOM  =      1469.21367386
  Solvation  Ediel_sol  =         0.00000000
  ---------------------------------------------------
  free energy    TOTEN  =       -37.28468760 eV

  energy without entropy =      -37.28468760  energy(sigma->0) =      -37.28468760


--------------------------------------------------------------------------------------------------------




--------------------------------------- Iteration      1(  21)  ---------------------------------------


    POTLOK:  cpu time   12.8479: real time   12.8732
    SETDIJ:  cpu time    0.0400: real time    0.0400
     EDDAV:  cpu time   16.2557: real time   16.2982
       DOS:  cpu time    0.0141: real time    0.0141
    CHARGE:  cpu time    5.3568: real time    5.3730
    MIXING:  cpu time    0.3952: real time    0.3959
    --------------------------------------------
      LOOP:  cpu time   34.9097: real time   34.9944

 eigenvalue-minimisations  :    96
 total energy-change (2. order) :-0.2221310E-03  (-0.6876341E-06)
 number of electron      23.9999999 magnetization 
 augmentation part        0.1224108 magnetization 

 Broyden mixing:
  rms(total) = 0.34617E-03    rms(broyden)= 0.34617E-03
  rms(prec ) = 0.35017E-03
  weight for this iteration     100.00

 eigenvalues of (default mixing * dielectric matrix)
  average eigenvalue GAMMA=   2.0600
  8.5533  5.1208  2.8964  2.4389  2.4389  1.5869  1.5869  0.9807  0.9807  1.0634
  1.0634  0.8896  0.8896  0.8041  0.8041  0.8629

 Free energy of the ion-electron system (eV)
  ---------------------------------------------------
  alpha Z        PSCENC =         0.03650749
  Ewald energy   TEWEN  =      1204.28003533
  -Hartree energ DENC   =     -2449.05726512
  -exchange      EXHF   =         0.00000000
  -V(xc)+E(xc)   XCENC  =        92.94252994
  PAW double counting   =     15561.78737419   -15560.96665661
  entropy T*S    EENTRO =        -0.00000000
  eigenvalues    EBANDS =      -355.52110880
  atomic energy  EATOM  =      1469.21367386
  Solvation  Ediel_sol  =         0.00000000
  ---------------------------------------------------
  free energy    TOTEN  =       -37.28490973 eV

  energy without entropy =      -37.28490973  energy(sigma->0) =      -37.28490973


--------------------------------------------------------------------------------------------------------




--------------------------------------- Iteration      1(  22)  ---------------------------------------


    POTLOK:  cpu time   12.8905: real time   12.9126
    SETDIJ:  cpu time    0.0400: real time    0.0400
     EDDAV:  cpu time   20.3738: real time   20.4171
       DOS:  cpu time    0.0165: real time    0.0165
    CHARGE:  cpu time    5.2866: real time    5.3006
    MIXING:  cpu time    0.4075: real time    0.4083
    --------------------------------------------
      LOOP:  cpu time   39.0149: real time   39.0951

 eigenvalue-minimisations  :   128
 total energy-change (2. order) :-0.2684925E-04  (-0.2375351E-07)
 number of electron      23.9999999 magnetization 
 augmentation part        0.1224066 magnetization 

 Broyden mixing:
  rms(total) = 0.13681E-03    rms(broyden)= 0.13681E-03
  rms(prec ) = 0.14274E-03
  weight for this iteration     100.00

 eigenvalues of (default mixing * dielectric matrix)
  average eigenvalue GAMMA=   2.1452
  8.9851  5.3177  3.1684  2.6283  2.3697  2.3697  1.7042  1.7042  0.9470  0.9470
  1.0459  1.0459  0.7902  0.7902  0.8889  0.8889  0.8772

 Free energy of the ion-electron system (eV)
  ---------------------------------------------------
  alpha Z        PSCENC =         0.03650749
  Ewald energy   TEWEN  =      1204.28003533
  -Hartree energ DENC   =     -2449.06085791
  -exchange      EXHF   =         0.00000000
  -V(xc)+E(xc)   XCENC  =        92.94257505
  PAW double counting   =     15561.36403492   -15560.54334518
  entropy T*S    EENTRO =        -0.00000000
  eigenvalues    EBANDS =      -355.51756014
  atomic energy  EATOM  =      1469.21367386
  Solvation  Ediel_sol  =         0.00000000
  ---------------------------------------------------
  free energy    TOTEN  =       -37.28493658 eV

  energy without entropy =      -37.28493658  energy(sigma->0) =      -37.28493658


--------------------------------------------------------------------------------------------------------




--------------------------------------- Iteration      1(  23)  ---------------------------------------


    POTLOK:  cpu time   12.8112: real time   12.8393
    SETDIJ:  cpu time    0.0401: real time    0.0402
     EDDAV:  cpu time   12.2692: real time   12.2933
       DOS:  cpu time    0.0203: real time    0.0203
    CHARGE:  cpu time    5.3277: real time    5.3370
    MIXING:  cpu time    0.4591: real time    0.4599
    --------------------------------------------
      LOOP:  cpu time   30.9276: real time   30.9900

 eigenvalue-minimisations  :    64
 total energy-change (2. order) :-0.4542840E-04  (-0.2819075E-07)
 number of electron      23.9999999 magnetization 
 augmentation part        0.1224070 magnetization 

 Broyden mixing:
  rms(total) = 0.28067E-03    rms(broyden)= 0.28067E-03
  rms(prec ) = 0.28131E-03
  weight for this iteration     100.00

 eigenvalues of (default mixing * dielectric matrix)
  average eigenvalue GAMMA=   2.1656
  9.1826  5.9442  4.0637  2.5172  2.5172  2.2030  1.5822  1.5822  1.1951  0.9224
  0.9224  1.1125  0.7962  0.7962  0.9586  0.8778  0.9036  0.9036

 Free energy of the ion-electron system (eV)
  ---------------------------------------------------
  alpha Z        PSCENC =         0.03650749
  Ewald energy   TEWEN  =      1204.28003533
  -Hartree energ DENC   =     -2449.06436301
  -exchange      EXHF   =         0.00000000
  -V(xc)+E(xc)   XCENC  =        92.94253253
  PAW double counting   =     15560.37465972   -15559.55396079
  entropy T*S    EENTRO =        -0.00000000
  eigenvalues    EBANDS =      -355.51406713
  atomic energy  EATOM  =      1469.21367386
  Solvation  Ediel_sol  =         0.00000000
  ---------------------------------------------------
  free energy    TOTEN  =       -37.28498201 eV

  energy without entropy =      -37.28498201  energy(sigma->0) =      -37.28498201


--------------------------------------------------------------------------------------------------------




--------------------------------------- Iteration      1(  24)  ---------------------------------------


    POTLOK:  cpu time   12.8852: real time   12.9098
    SETDIJ:  cpu time    0.0400: real time    0.0400
     EDDAV:  cpu time   16.2117: real time   16.2429
       DOS:  cpu time    0.0246: real time    0.0246
    CHARGE:  cpu time    5.3012: real time    5.3113
    MIXING:  cpu time    0.4232: real time    0.4240
    --------------------------------------------
      LOOP:  cpu time   34.8859: real time   34.9526

 eigenvalue-minimisations  :    96
 total energy-change (2. order) :-0.1231651E-04  (-0.1418617E-07)
 number of electron      23.9999999 magnetization 
 augmentation part        0.1224060 magnetization 

 Broyden mixing:
  rms(total) = 0.93079E-04    rms(broyden)= 0.93079E-04
  rms(prec ) = 0.93829E-04
  weight for this iteration     100.00

 eigenvalues of (default mixing * dielectric matrix)
  average eigenvalue GAMMA=   2.1827
  9.2540  6.1736  4.2213  2.7171  2.5142  2.3312  1.6379  1.6379  1.6087  1.1722
  1.1722  0.9273  0.9273  1.0106  0.7925  0.7925  0.8577  0.8613  0.8613

 Free energy of the ion-electron system (eV)
  ---------------------------------------------------
  alpha Z        PSCENC =         0.03650749
  Ewald energy   TEWEN  =      1204.28003533
  -Hartree energ DENC   =     -2449.06624341
  -exchange      EXHF   =         0.00000000
  -V(xc)+E(xc)   XCENC  =        92.94257385
  PAW double counting   =     15560.96451551   -15560.14381721
  entropy T*S    EENTRO =        -0.00000000
  eigenvalues    EBANDS =      -355.51223973
  atomic energy  EATOM  =      1469.21367386
  Solvation  Ediel_sol  =         0.00000000
  ---------------------------------------------------
  free energy    TOTEN  =       -37.28499432 eV

  energy without entropy =      -37.28499432  energy(sigma->0) =      -37.28499432


--------------------------------------------------------------------------------------------------------




--------------------------------------- Iteration      1(  25)  ---------------------------------------


    POTLOK:  cpu time   12.7857: real time   12.8154
    SETDIJ:  cpu time    0.0402: real time    0.0402
     EDDAV:  cpu time   20.3039: real time   20.3440
       DOS:  cpu time    0.0211: real time    0.0211
    CHARGE:  cpu time    5.3522: real time    5.3605
    MIXING:  cpu time    0.4482: real time    0.4491
    --------------------------------------------
      LOOP:  cpu time   38.9513: real time   39.0302

 eigenvalue-minimisations  :   128
 total energy-change (2. order) :-0.7862613E-05  (-0.7000475E-08)
 number of electron      23.9999999 magnetization 
 augmentation part        0.1224073 magnetization 

 Broyden mixing:
  rms(total) = 0.39385E-04    rms(broyden)= 0.39384E-04
  rms(prec ) = 0.39974E-04
  weight for this iteration     100.00

 eigenvalues of (default mixing * dielectric matrix)
  average eigenvalue GAMMA=   2.1967
  9.4275  6.4644  4.4424  3.0501  2.4257  2.4257  2.1406  1.6548  1.6548  1.2081
  1.2081  0.9208  0.9208  0.9384  0.9384  0.8598  0.8598  0.7947  0.7947  0.8044

 Free energy of the ion-electron system (eV)
  ---------------------------------------------------
  alpha Z        PSCENC =         0.03650749
  Ewald energy   TEWEN  =      1204.28003533
  -Hartree energ DENC   =     -2449.06594569
  -exchange      EXHF   =         0.00000000
  -V(xc)+E(xc)   XCENC  =        92.94253597
  PAW double counting   =     15561.28985227   -15560.46913833
  entropy T*S    EENTRO =        -0.00000000
  eigenvalues    EBANDS =      -355.51252308
  atomic energy  EATOM  =      1469.21367386
  Solvation  Ediel_sol  =         0.00000000
  ---------------------------------------------------
  free energy    TOTEN  =       -37.28500219 eV

  energy without entropy =      -37.28500219  energy(sigma->0) =      -37.28500219


--------------------------------------------------------------------------------------------------------




--------------------------------------- Iteration      1(  26)  ---------------------------------------


    POTLOK:  cpu time   12.8501: real time   12.8727
    SETDIJ:  cpu time    0.0401: real time    0.0401
     EDDAV:  cpu time   20.2811: real time   20.3263
       DOS:  cpu time    0.0152: real time    0.0152
    CHARGE:  cpu time    5.3259: real time    5.3370
    MIXING:  cpu time    0.4630: real time    0.4638
    --------------------------------------------
      LOOP:  cpu time   38.9753: real time   39.0551

 eigenvalue-minimisations  :   128
 total energy-change (2. order) :-0.3815043E-05  (-0.5894220E-08)
 number of electron      23.9999999 magnetization 
 augmentation part        0.1224075 magnetization 

 Broyden mixing:
  rms(total) = 0.56847E-04    rms(broyden)= 0.56847E-04
  rms(prec ) = 0.57007E-04
  weight for this iteration     100.00

 eigenvalues of (default mixing * dielectric matrix)
  average eigenvalue GAMMA=   2.2354
  9.5342  6.8170  4.8796  3.5449  2.5697  2.4855  2.1440  1.5315  1.5315  1.4816
  0.9284  0.9284  1.1839  1.1662  1.1148  0.9407  0.7939  0.7939  0.8499  0.8618
  0.8618

 Free energy of the ion-electron system (eV)
  ---------------------------------------------------
  alpha Z        PSCENC =         0.03650749
  Ewald energy   TEWEN  =      1204.28003533
  -Hartree energ DENC   =     -2449.06595370
  -exchange      EXHF   =         0.00000000
  -V(xc)+E(xc)   XCENC  =        92.94252280
  PAW double counting   =     15561.28297012   -15560.46225505
  entropy T*S    EENTRO =        -0.00000000
  eigenvalues    EBANDS =      -355.51250684
  atomic energy  EATOM  =      1469.21367386
  Solvation  Ediel_sol  =         0.00000000
  ---------------------------------------------------
  free energy    TOTEN  =       -37.28500600 eV

  energy without entropy =      -37.28500600  energy(sigma->0) =      -37.28500600


--------------------------------------------------------------------------------------------------------




--------------------------------------- Iteration      1(  27)  ---------------------------------------


    POTLOK:  cpu time   12.8326: real time   12.8553
    SETDIJ:  cpu time    0.0402: real time    0.0402
     EDDAV:  cpu time   12.2914: real time   12.3146
       DOS:  cpu time    0.0180: real time    0.0180
    CHARGE:  cpu time    5.3473: real time    5.3558
    MIXING:  cpu time    0.5050: real time    0.5061
    --------------------------------------------
      LOOP:  cpu time   31.0344: real time   31.0900

 eigenvalue-minimisations  :    64
 total energy-change (2. order) :-0.2293207E-05  (-0.6305770E-08)
 number of electron      23.9999999 magnetization 
 augmentation part        0.1224072 magnetization 

 Broyden mixing:
  rms(total) = 0.98661E-05    rms(broyden)= 0.98660E-05
  rms(prec ) = 0.10106E-04
  weight for this iteration     100.00

 eigenvalues of (default mixing * dielectric matrix)
  average eigenvalue GAMMA=   2.2548
  9.5120  7.1074  5.0061  3.7312  2.4451  2.4265  2.4265  1.7923  1.7923  1.6120
  1.6120  0.9312  0.9312  1.0876  1.0454  1.0454  0.9385  0.7927  0.7927  0.8593
  0.8593  0.8593

 Free energy of the ion-electron system (eV)
  ---------------------------------------------------
  alpha Z        PSCENC =         0.03650749
  Ewald energy   TEWEN  =      1204.28003533
  -Hartree energ DENC   =     -2449.06625547
  -exchange      EXHF   =         0.00000000
  -V(xc)+E(xc)   XCENC  =        92.94253015
  PAW double counting   =     15561.15666489   -15560.33595540
  entropy T*S    EENTRO =        -0.00000000
  eigenvalues    EBANDS =      -355.51220914
  atomic energy  EATOM  =      1469.21367386
  Solvation  Ediel_sol  =         0.00000000
  ---------------------------------------------------
  free energy    TOTEN  =       -37.28500830 eV

  energy without entropy =      -37.28500830  energy(sigma->0) =      -37.28500830


--------------------------------------------------------------------------------------------------------




--------------------------------------- Iteration      1(  28)  ---------------------------------------


    POTLOK:  cpu time   12.8414: real time   12.8703
    SETDIJ:  cpu time    0.0400: real time    0.0400
     EDDAV:  cpu time   20.1975: real time   20.2422
[...]

 Free energy of the ion-electron system (eV)
  ---------------------------------------------------
  alpha Z        PSCENC =         0.03650749
  Ewald energy   TEWEN  =      1204.28003533
  -Hartree energ DENC   =     -2449.06631074
  -exchange      EXHF   =         0.00000000
  -V(xc)+E(xc)   XCENC  =        92.94253127
  PAW double counting   =     15561.14090804   -15560.32020034
  entropy T*S    EENTRO =        -0.00000000
  eigenvalues    EBANDS =      -355.51215404
  atomic energy  EATOM  =      1469.21367386
  Solvation  Ediel_sol  =         0.00000000
  ---------------------------------------------------
  free energy    TOTEN  =       -37.28500914 eV

  energy without entropy =      -37.28500914  energy(sigma->0) =      -37.28500914


--------------------------------------------------------------------------------------------------------




--------------------------------------- Iteration      1(  29)  ---------------------------------------


    POTLOK:  cpu time   12.8213: real time   12.8440
    SETDIJ:  cpu time    0.0400: real time    0.0400
     EDDAV:  cpu time   20.3565: real time   20.4079
       DOS:  cpu time    0.0185: real time    0.0185
    CHARGE:  cpu time    5.3701: real time    5.3783
    MIXING:  cpu time    0.5351: real time    0.5362
    --------------------------------------------
      LOOP:  cpu time   39.1416: real time   39.2250

 eigenvalue-minimisations  :   128
 total energy-change (2. order) :-0.4048188E-06  (-0.4644262E-08)
 number of electron      23.9999999 magnetization 
 augmentation part        0.1224071 magnetization 

 Broyden mixing:
  rms(total) = 0.56063E-05    rms(broyden)= 0.56063E-05
  rms(prec ) = 0.56724E-05
  weight for this iteration     100.00

 eigenvalues of (default mixing * dielectric matrix)
  average eigenvalue GAMMA=   2.2817
  9.6092  7.5128  5.5823  4.2694  3.0629  2.4968  2.4407  2.3111  1.5596  1.5596
  1.6445  1.6445  0.9307  0.9307  1.1140  1.0070  1.0070  0.7928  0.7928  0.9581
  0.9581  0.8587  0.8587  0.8598

 Free energy of the ion-electron system (eV)
  ---------------------------------------------------
  alpha Z        PSCENC =         0.03650749
  Ewald energy   TEWEN  =      1204.28003533
  -Hartree energ DENC   =     -2449.06635383
  -exchange      EXHF   =         0.00000000
  -V(xc)+E(xc)   XCENC  =        92.94253056
  PAW double counting   =     15561.13648053   -15560.31577301
  entropy T*S    EENTRO =        -0.00000000
  eigenvalues    EBANDS =      -355.51211046
  atomic energy  EATOM  =      1469.21367386
  Solvation  Ediel_sol  =         0.00000000
  ---------------------------------------------------
  free energy    TOTEN  =       -37.28500954 eV

  energy without entropy =      -37.28500954  energy(sigma->0) =      -37.28500954


--------------------------------------------------------------------------------------------------------




--------------------------------------- Iteration      1(  30)  ---------------------------------------


    POTLOK:  cpu time   12.8354: real time   12.8574
    SETDIJ:  cpu time    0.0403: real time    0.0403
     EDDAV:  cpu time   20.4098: real time   20.4508
       DOS:  cpu time    0.0126: real time    0.0126
    CHARGE:  cpu time    5.3807: real time    5.3887
    MIXING:  cpu time    0.5454: real time    0.5465
    --------------------------------------------
      LOOP:  cpu time   39.2242: real time   39.2964

 eigenvalue-minimisations  :   128
 total energy-change (2. order) :-0.3066352E-06  (-0.3602064E-08)
 number of electron      23.9999999 magnetization 
 augmentation part        0.1224071 magnetization 

 Broyden mixing:
  rms(total) = 0.42795E-05    rms(broyden)= 0.42795E-05
  rms(prec ) = 0.43039E-05
  weight for this iteration     100.00

 eigenvalues of (default mixing * dielectric matrix)
  average eigenvalue GAMMA=   2.3131
  9.6739  7.7920  5.8929  4.5808  3.5116  2.4854  2.4854  2.3635  1.8534  1.5920
  1.5920  1.4840  1.4840  0.9290  0.9290  1.0295  1.0295  1.0059  1.0059  0.7927
  0.7927  0.9406  0.8608  0.8605  0.8605

 Free energy of the ion-electron system (eV)
  ---------------------------------------------------
  alpha Z        PSCENC =         0.03650749
  Ewald energy   TEWEN  =      1204.28003533
  -Hartree energ DENC   =     -2449.06636836
  -exchange      EXHF   =         0.00000000
  -V(xc)+E(xc)   XCENC  =        92.94253072
  PAW double counting   =     15561.14687144   -15560.32616376
  entropy T*S    EENTRO =        -0.00000000
  eigenvalues    EBANDS =      -355.51209656
  atomic energy  EATOM  =      1469.21367386
  Solvation  Ediel_sol  =         0.00000000
  ---------------------------------------------------
  free energy    TOTEN  =       -37.28500985 eV

  energy without entropy =      -37.28500985  energy(sigma->0) =      -37.28500985


--------------------------------------------------------------------------------------------------------




--------------------------------------- Iteration      1(  31)  ---------------------------------------


    POTLOK:  cpu time   12.8060: real time   12.8279
    SETDIJ:  cpu time    0.0402: real time    0.0402
     EDDAV:  cpu time   20.3576: real time   20.3976
       DOS:  cpu time    0.0199: real time    0.0199
    CHARGE:  cpu time    5.2820: real time    5.2901
    MIXING:  cpu time    0.5696: real time    0.5708
    --------------------------------------------
      LOOP:  cpu time   39.0753: real time   39.1465

 eigenvalue-minimisations  :   128
 total energy-change (2. order) :-0.1203607E-06  (-0.2606830E-08)
 number of electron      23.9999999 magnetization 
 augmentation part        0.1224071 magnetization 

 Broyden mixing:
  rms(total) = 0.18000E-05    rms(broyden)= 0.18000E-05
  rms(prec ) = 0.18169E-05
  weight for this iteration     100.00

 eigenvalues of (default mixing * dielectric matrix)
  average eigenvalue GAMMA=   2.3265
  9.7058  7.9419  6.0665  4.7669  3.5882  2.7447  2.4377  2.4377  2.2301  1.5977
  1.5977  1.6673  1.6673  0.9304  0.9304  1.0122  1.0122  1.0867  1.0445  0.7928
  0.7928  0.8632  0.8632  0.9264  0.9264  0.8591

 Free energy of the ion-electron system (eV)
  ---------------------------------------------------
  alpha Z        PSCENC =         0.03650749
  Ewald energy   TEWEN  =      1204.28003533
  -Hartree energ DENC   =     -2449.06635835
  -exchange      EXHF   =         0.00000000
  -V(xc)+E(xc)   XCENC  =        92.94252955
  PAW double counting   =     15561.15560454   -15560.33489623
  entropy T*S    EENTRO =        -0.00000000
  eigenvalues    EBANDS =      -355.51210615
  atomic energy  EATOM  =      1469.21367386
  Solvation  Ediel_sol  =         0.00000000
  ---------------------------------------------------
  free energy    TOTEN  =       -37.28500997 eV

  energy without entropy =      -37.28500997  energy(sigma->0) =      -37.28500997


--------------------------------------------------------------------------------------------------------




--------------------------------------- Iteration      1(  32)  ---------------------------------------


    POTLOK:  cpu time   12.7519: real time   12.7737
    SETDIJ:  cpu time    0.0402: real time    0.0402
     EDDAV:  cpu time   20.3774: real time   20.4165
       DOS:  cpu time    0.0251: real time    0.0251
    --------------------------------------------
      LOOP:  cpu time   33.1946: real time   33.2555

 eigenvalue-minimisations  :   128
 total energy-change (2. order) :-0.5553557E-07  (-0.2277632E-08)
 number of electron      23.9999999 magnetization 
 augmentation part        0.1224071 magnetization 

 Free energy of the ion-electron system (eV)
  ---------------------------------------------------
  alpha Z        PSCENC =         0.03650749
  Ewald energy   TEWEN  =      1204.28003533
  -Hartree energ DENC   =     -2449.06633934
  -exchange      EXHF   =         0.00000000
  -V(xc)+E(xc)   XCENC  =        92.94252849
  PAW double counting   =     15561.15099275   -15560.33028427
  entropy T*S    EENTRO =        -0.00000000
  eigenvalues    EBANDS =      -355.51212432
  atomic energy  EATOM  =      1469.21367386
  Solvation  Ediel_sol  =         0.00000000
  ---------------------------------------------------
  free energy    TOTEN  =       -37.28501002 eV

  energy without entropy =      -37.28501002  energy(sigma->0) =      -37.28501002


--------------------------------------------------------------------------------------------------------




 average (electrostatic) potential at core
  the test charge radii are     0.4325  0.5770  0.5955
  (the norm of the test charge is              1.0000)
       1 -47.5221       2 -47.5159       3 -90.3921       4-121.1549       5-121.2815
       6-119.4087
 
 
 
 E-fermi :  -6.9703     XC(G=0):  -0.0345     alpha+bet : -0.0095


 k-point     1 :       0.0000    0.0000    0.0000
  band No.  band energies     occupation 
      1     -28.6513      2.00000
      2     -27.6351      2.00000
      3     -25.2221      2.00000
      4     -13.3888      2.00000
      5     -13.0053      2.00000
      6     -12.2632      2.00000
      7     -12.2049      2.00000
      8     -12.2027      2.00000
      9      -8.9032      2.00000
     10      -8.6001      2.00000
     11      -8.5963      2.00000
     12      -7.0830      2.00000
     13      -0.9892      0.00000
     14      -0.4582      0.00000
     15      -0.0146      0.00000
     16       0.0037      0.00000
     17       0.0052      0.00000
     18       0.1013      0.00000
     19       0.1145      0.00000
     20       0.1198      0.00000
     21       0.1215      0.00000
     22       0.1288      0.00000
     23       0.1498      0.00000
     24       0.1904      0.00000
     25       0.2212      0.00000
     26       0.2411      0.00000
     27       0.2414      0.00000
     28       0.2419      0.00000
     29       0.2444      0.00000
     30       0.2450      0.00000
     31       0.2452      0.00000
     32       0.2471      0.00000


--------------------------------------------------------------------------------------------------------


 soft charge-density along one line, spin component            1
         0         1         2         3         4         5         6         7         8         9
 total charge-density along one line
 
 pseudopotential strength for first ion, spin component:            1
 -2.534  -5.388   0.005  -0.008   0.000
 -5.388 -11.432   0.012  -0.019   0.001
  0.005   0.012  -1.383  -0.011   0.000
 -0.008  -0.019  -0.011  -1.372  -0.001
  0.000   0.001   0.000  -0.001  -1.390
 total augmentation occupancy for first ion, spin component:            1
  4.294  -0.813  -0.212   0.311  -0.011
 -0.813   0.183   0.042  -0.059   0.002
 -0.212   0.042   0.016  -0.012   0.000
  0.311  -0.059  -0.012   0.024  -0.001
 -0.011   0.002   0.000  -0.001   0.011


------------------------ aborting loop because EDIFF is reached ----------------------------------------



 DIPCOR: dipole corrections for dipol
 direction  1 min pos   459, direction  2 min pos   449, direction  3 min pos   403,
 dipolmoment          -0.013526     -0.420932      0.015979 electrons x Angstroem
 Tr[quadrupol]        11.955323

 energy correction for charged system         0.000000 eV
 dipol+quadrupol energy correction            0.000125 eV
 added-field ion interaction          0.000000 eV  (added to PSCEN)

 
  *************** adding dipol energy to TOTEN NOW **************** 
    CHARGE:  cpu time    5.3571: real time    5.3653
    FORLOC:  cpu time    0.5319: real time    0.5326
    FORNL :  cpu time    0.5065: real time    0.5075
    STRESS:  cpu time   12.5501: real time   12.5738
    FORCOR:  cpu time   10.7312: real time   10.7532
    FORHAR:  cpu time    3.3059: real time    3.3117
    MIXING:  cpu time    0.5971: real time    0.5982
    OFIELD:  cpu time    0.0000: real time    0.0000

  Hirshfeld charges:
            ion         q(e)     
   ------------------------------
      1     H           0.143
      2     H           0.143
      3     C           0.283
      4     O          -0.132
      5     O          -0.162
      6     O          -0.275

  Hirshfeld-I charges:
            ion         q(e)        dq(e)    
   ------------------------------------------
      1     H           0.443      0.187E-04
      2     H           0.443      0.187E-04
      3     C           0.816     -0.134E-04
      4     O          -0.369      0.103E-04
      5     O          -0.435      0.606E-05
      6     O          -0.898     -0.404E-04

   Hirshfeld-I converged in  20 cycles. Convergence criterion |dq|< 0.500E-04 e

  Atomic reference data used in the T-S method for vdW correction:
            C6at              R0at           ALPHAat      REFSTATE
            (au)              (au)            (au)                
   ---------------------------------------------------------------
   H           6.500          3.099          4.500         0
   C          46.600          3.590         12.000         0
   O          15.600          3.194          5.400         0

  Tkatchenko/Scheffler method for vdW energy calculation
  ---------------------------------------------------------------------------------------------

  Parameters of vdW forcefield:
            C6ts              R0ts           ALPHAts        RELVOL
            (au)              (au)            (au)                
   ---------------------------------------------------------------
   H           0.649          2.111          1.421          0.31587957
   H           0.646          2.109          1.418          0.31517507
   C           9.590          2.759          5.444          0.45365359
   O          18.094          3.274          5.816          1.07695997
   O          18.960          3.299          5.953          1.10243742
   O          27.561          3.511          7.178          1.32917674

  vdW correction parametrized for the method pbe       

  IVDW =  21
  VDW_RADIUS =    50.000 A
  VDW_IDAMPF =  0
  VDW_S6 =     1.000
  VDW_SR =     0.950
  VDW_D =    20.000
  LVDW_ONECELL = F F F
  LVDW_SAMETYPE T T T
  LVDW_EWALD = F

  Number of pair interactions contributing to vdW energy:     323
  Edisp (eV):   -0.01100
    FORVDW:  cpu time   99.1501: real time   99.2129

  FORCE on cell =-STRESS in cart. coord.  units (eV):
  Direction    XX          YY          ZZ          XY          YZ          ZX
  --------------------------------------------------------------------------------------
  Alpha Z     0.03651     0.03651     0.03651
  Ewald    -112.71504  1303.73468    13.26054     3.07080     1.41830    -1.45929
  Hartree   515.99457  1394.24832   538.82348     0.87901    -0.20915    -0.26618
  E(xc)    -115.18509  -112.75715  -114.62868     0.01232     0.01020    -0.00648
  Local    -915.66254 -3118.68440 -1024.84344    -3.11127    -0.43900     1.26511
  n-local   -49.88718   -41.13560   -44.33562     0.09990     0.13099    -0.06374
  augment     2.31162     1.32917     1.54405    -0.01768    -0.01376     0.00898
  Kinetic   675.08846   576.11423   630.63856    -0.91973    -0.88201     0.51547
  Fock        0.00000     0.00000     0.00000     0.00000     0.00000     0.00000
  vdW        -0.00000    -0.04617    -0.00046    -0.00016     0.00026     0.00001
  -------------------------------------------------------------------------------------
  Total      -0.01869     2.83959     0.49493     0.01320     0.01584    -0.00613
  in kB      -0.00070     0.10611     0.01850     0.00049     0.00059    -0.00023
  external pressure =        0.04 kB  Pullay stress =        0.00 kB


 VOLUME and BASIS-vectors are now :
 -----------------------------------------------------------------------------
  energy-cutoff  :     1000.00
  volume of cell :    42875.00
      direct lattice vectors                 reciprocal lattice vectors
    35.000000000  0.000000000  0.000000000     0.028571429  0.000000000  0.000000000
     0.000000000 35.000000000  0.000000000     0.000000000  0.028571429  0.000000000
     0.000000000  0.000000000 35.000000000     0.000000000  0.000000000  0.028571429

  length of vectors
    35.000000000 35.000000000 35.000000000     0.028571429  0.028571429  0.028571429


 FORCES acting on ions
    electron-ion (+dipol)            ewald-force                    non-local-force                 convergence-correction
 -----------------------------------------------------------------------------------------------
   -.281E+01 -.636E+02 0.785E+02   0.308E+01 0.686E+02 -.860E+02   -.259E+00 -.471E+01 0.717E+01   0.472E-07 0.405E-06 -.768E-06
   -.120E+01 -.701E+02 -.732E+02   0.132E+01 0.758E+02 0.802E+02   -.112E+00 -.536E+01 -.670E+01   0.331E-07 0.472E-06 0.700E-06
   0.297E-01 0.341E+02 -.793E-01   -.331E-01 -.333E+02 0.669E-01   0.204E-02 -.725E+00 0.115E-01   -.884E-08 0.301E-05 -.117E-07
   0.122E+00 -.175E+03 -.224E+00   -.129E+00 0.239E+03 0.284E+00   0.578E-02 -.647E+02 -.660E-01   -.442E-07 -.151E-05 -.204E-07
   0.212E-01 0.314E+03 -.436E-01   -.238E-01 -.375E+03 0.451E-01   0.314E-02 0.615E+02 -.126E-03   -.406E-07 -.142E-05 -.309E-07
   0.234E+01 -.785E+02 -.289E+01   -.422E+01 0.249E+02 0.540E+01   0.186E+01 0.537E+02 -.248E+01   0.244E-06 0.486E-06 -.713E-07
 -----------------------------------------------------------------------------------------------
   -.150E+01 -.398E+02 0.206E+01   0.000E+00 -.391E-13 -.133E-13   0.150E+01 0.398E+02 -.206E+01   0.230E-06 0.145E-05 -.203E-06
 
 
 POSITION                                       TOTAL-FORCE (eV/Angst)
 -----------------------------------------------------------------------------------
      0.02970      4.21265     34.21499         0.011930      0.290513     -0.354324
      0.01365      4.28454      0.72944         0.004402      0.334347      0.322550
      0.00000      0.08826      0.00000        -0.001282      0.152981     -0.000994
      0.00000      1.25848      0.00000        -0.000767     -0.703852     -0.005430
      0.00000     33.91804      0.00000         0.000537     -0.284040      0.001334
      0.00000      3.65848      0.00000        -0.014820      0.210051      0.036863
 -----------------------------------------------------------------------------------
    total drift:                                0.000023     -0.000001      0.000002


--------------------------------------------------------------------------------------------------------



  FREE ENERGIE OF THE ION-ELECTRON SYSTEM (eV)
  ---------------------------------------------------
  free  energy   TOTEN  =       -37.29588071 eV

  energy  without entropy=      -37.29588071  energy(sigma->0) =      -37.29588071
 


--------------------------------------------------------------------------------------------------------


    POTLOK:  cpu time   13.0274: real time   13.0535


--------------------------------------------------------------------------------------------------------


 writing wavefunctions
     LOOP+:  cpu time 1505.7558: real time 1508.2437
    4ORBIT:  cpu time    0.0000: real time    0.0000

 total amount of memory used by VASP MPI-rank0  4216433. kBytes
=======================================================================

   base      :      30000. kBytes
   nonl-proj :     443298. kBytes
   fftplans  :     676185. kBytes
   grid      :    3042313. kBytes
   one-center:          9. kBytes
   wavefun   :      24628. kBytes
 
  
  
 General timing and accounting informations for this job:
 ========================================================
  
                  Total CPU time used (sec):     2580.910
                            User time (sec):     2405.467
                          System time (sec):      175.442
                         Elapsed time (sec):     2585.969
  
                   Maximum memory used (kb):     5618936.
                   Average memory used (kb):           0.
  
                          Minor page faults:     86586406
                          Major page faults:          875
                 Voluntary context switches:        12403
