 vasp.5.4.1 24Jun15 (build Jan 02 2020 16:21:29) gamma-only                     
  
 executed on           IFC15_impi date 2020.04.23  12:03:36
 running on   32 total cores
 distrk:  each k-point on   32 cores,    1 groups
 distr:  one band on NCORES_PER_BAND=   8 cores,    4 groups


--------------------------------------------------------------------------------------------------------


 INCAR:
 POTCAR:    PAW_PBE C_h_GW 23May2013              
 POTCAR:    PAW_PBE H_h_GW 21Apr2008              
 POTCAR:    PAW_PBE C_h_GW 23May2013              
   VRHFIN =C: s2p2                                                              
   LEXCH  = PE                                                                  
   EATOM  =   147.1560 eV,   10.8157 Ry                                         
                                                                                
   TITEL  = PAW_PBE C_h_GW 23May2013                                            
   LULTRA =        F    use ultrasoft PP ?                                      
   IUNSCR =        1    unscreen: 0-lin 1-nonlin 2-no                           
   RPACOR =    0.800    partial core radius                                     
   POMASS =   12.011; ZVAL   =    4.000    mass and valenz                      
   RCORE  =    1.100    outmost cutoff radius                                   
   RWIGS  =    1.200; RWIGS  =    0.635    wigner-seitz radius (au A)           
   ENMAX  =  741.689; ENMIN  =  556.267 eV                                      
   RCLOC  =    0.804    cutoff for local pot                                    
   LCOR   =        T    correct aug charges                                     
   LPAW   =        T    paw PP                                                  
   EAUG   = 1782.225                                                            
   DEXC   =    0.000                                                            
   RMAX   =    1.128    core radius for proj-oper                               
   RAUG   =    1.300    factor for augmentation sphere                          
   RDEP   =    1.162    radius for radial grids                                 
   RDEPT  =    1.000    core radius for aug-charge                              
                                                                                
   Atomic configuration                                                         
    5 entries                                                                   
     n  l   j            E        occ.                                          
     1  0  0.50      -273.3789   2.0000                                         
     2  0  0.50       -13.7508   2.0000                                         
     2  1  0.50        -5.2854   2.0000                                         
     3  2  1.50        -5.4423   0.0000                                         
     4  3  2.50        -5.4423   0.0000                                         
   Description                                                                  
     l       E           TYP  RCUT    TYP  RCUT                                 
     0    -13.7508457     23  1.000                                             
     0     81.6349560     23  1.000                                             
     0    204.0873900     23  1.000                                             
     1     -5.2854382     23  1.100                                             
     1    204.0873900     23  1.100                                             
     1    380.9631280     23  1.100                                             
     2     81.6349560     23  1.100                                             
     2    204.0873900     23  1.100                                             
  local pseudopotential read in
  partial core-charges read in
  partial kinetic energy density read in
  kinetic energy density of atom read in
  atomic valenz-charges read in
  non local Contribution for L=           0  read in
    real space projection operators read in
  non local Contribution for L=           0  read in
    real space projection operators read in
  non local Contribution for L=           0  read in
    real space projection operators read in
  non local Contribution for L=           1  read in
    real space projection operators read in
  non local Contribution for L=           1  read in
    real space projection operators read in
  non local Contribution for L=           1  read in
    real space projection operators read in
  non local Contribution for L=           2  read in
    real space projection operators read in
  non local Contribution for L=           2  read in
    real space projection operators read in
    PAW grid and wavefunctions read in
 
   number of l-projection  operators is LMAX  =           8
   number of lm-projection operators is LMMAX =          22
 
 POTCAR:    PAW_PBE H_h_GW 21Apr2008              
   VRHFIN =H: ultrasoft test                                                    
   LEXCH  = PE                                                                  
   EATOM  =    12.4884 eV,    0.9179 Ry                                         
                                                                                
   TITEL  = PAW_PBE H_h_GW 21Apr2008                                            
   LULTRA =        F    use ultrasoft PP ?                                      
   IUNSCR =        0    unscreen: 0-lin 1-nonlin 2-no                           
   RPACOR =    0.000    partial core radius                                     
   POMASS =    1.000; ZVAL   =    1.000    mass and valenz                      
   RCORE  =    0.800    outmost cutoff radius                                   
   RWIGS  =    1.100; RWIGS  =    0.582    wigner-seitz radius (au A)           
   ENMAX  =  700.000; ENMIN  =  350.000 eV                                      
   RCLOC  =    0.701    cutoff for local pot                                    
   LCOR   =        T    correct aug charges                                     
   LPAW   =        T    paw PP                                                  
   EAUG   = 1000.000                                                            
   RMAX   =    0.819    core radius for proj-oper                               
   RAUG   =    1.000    factor for augmentation sphere                          
   RDEP   =    0.817    radius for radial grids                                 
   RDEPT  =    1.000    core radius for aug-charge                              
                                                                                
   Atomic configuration                                                         
    3 entries                                                                   
     n  l   j            E        occ.                                          
     1  0  0.50        -6.4927   1.0000                                         
     2  1  0.50        -3.4015   0.0000                                         
     3  2  1.50        13.6058   0.0000                                         
   Description                                                                  
     l       E           TYP  RCUT    TYP  RCUT                                 
     0     -6.4927495     23  0.800                                             
     0      6.8029130     23  0.800                                             
     1     -4.0817478     23  0.800                                             
     1    108.8466080     23  0.800                                             
     2     81.6349560     23  0.800                                             
  local pseudopotential read in
  kinetic energy density of atom read in
  atomic valenz-charges read in
  non local Contribution for L=           0  read in
    real space projection operators read in
  non local Contribution for L=           0  read in
    real space projection operators read in
  non local Contribution for L=           1  read in
    real space projection operators read in
  non local Contribution for L=           1  read in
    real space projection operators read in
  non local Contribution for L=           2  read in
    real space projection operators read in
    PAW grid and wavefunctions read in
 
   number of l-projection  operators is LMAX  =           5
   number of lm-projection operators is LMMAX =          13
 
  PAW_PBE C_h_GW 23May2013              :
 energy of atom  1       EATOM= -147.1560
 kinetic energy error for atom=    0.0004 (will be added to EATOM!!)
  PAW_PBE H_h_GW 21Apr2008              :
 energy of atom  2       EATOM=  -12.4884
 kinetic energy error for atom=    0.0001 (will be added to EATOM!!)
 
 
 POSCAR: C H                                     
  positions in cartesian coordinates
  No initial velocities read in
 exchange correlation table for  LEXCH =        8
   RHO(1)=    0.500       N(1)  =     2000
   RHO(2)=  100.500       N(2)  =     4000
 


--------------------------------------------------------------------------------------------------------


 ion  position               nearest neighbor table
   1  0.970  0.959  0.000-  12 1.08   3 1.39   2 1.39
   2  0.958  0.976  0.034-  11 1.08   1 1.39   4 1.39
   3  0.958  0.976  0.966-   7 1.08   1 1.39   6 1.39
   4  0.935  0.008  0.034-  10 1.08   2 1.39   5 1.39
   5  0.924  0.024  0.000-   9 1.08   6 1.39   4 1.39
   6  0.935  0.008  0.966-   8 1.08   3 1.39   5 1.39
   7  0.968  0.963  0.939-   3 1.08
   8  0.926  0.020  0.939-   6 1.08
   9  0.906  0.049  0.000-   5 1.08
  10  0.926  0.020  0.061-   4 1.08
  11  0.968  0.963  0.061-   2 1.08
  12  0.988  0.935  0.000-   1 1.08
 
  LATTYP: Found a simple cubic cell.
 ALAT       =    35.0000000000
  
  Lattice vectors:
  
 A1 = (  35.0000000000,   0.0000000000,   0.0000000000)
 A2 = (   0.0000000000,  35.0000000000,   0.0000000000)
 A3 = (   0.0000000000,   0.0000000000,  35.0000000000)


Analysis of symmetry for initial positions (statically):
=====================================================================
 Subroutine PRICEL returns:
 Original cell was already a primitive cell.
 

 Routine SETGRP: Setting up the symmetry group for a 
 simple cubic supercell.


 Subroutine GETGRP returns: Found  2 space group operations
 (whereof  2 operations were pure point group operations)
 out of a pool of 48 trial point group operations.


The static configuration has the point symmetry C_1h.


Analysis of symmetry for dynamics (positions and initial velocities):
=====================================================================
 Subroutine PRICEL returns:
 Original cell was already a primitive cell.
 

 Routine SETGRP: Setting up the symmetry group for a 
 simple cubic supercell.


 Subroutine GETGRP returns: Found  2 space group operations
 (whereof  2 operations were pure point group operations)
 out of a pool of 48 trial point group operations.


The dynamic configuration has the point symmetry C_1h.
 
 
 KPOINTS: automatic mesh                          

Automatic generation of k-mesh.
Space group operators:
 irot       det(A)        alpha          n_x          n_y          n_z        tau_x        tau_y        tau_z
    1     1.000000     0.000000     1.000000     0.000000     0.000000     0.000000     0.000000     0.000000
    2    -1.000000   180.000000     0.000000     0.000000     1.000000     0.000000     0.000000     0.000000
 
 Subroutine IBZKPT returns following result:
 ===========================================
 
 Found      1 irreducible k-points:
 
 Following reciprocal coordinates:
            Coordinates               Weight
  0.000000  0.000000  0.000000      1.000000
 
 Following cartesian coordinates:
            Coordinates               Weight
  0.000000  0.000000  0.000000      1.000000
 


--------------------------------------------------------------------------------------------------------




 Dimension of arrays:
   k-points           NKPTS =      1   k-points in BZ     NKDIM =      1   number of bands    NBANDS=     24
   number of dos      NEDOS =    301   number of ions     NIONS =     12
   non local maximal  LDIM  =      8   non local SUM 2l+1 LMDIM =     22
   total plane-waves  NPLWV = ******
   max r-space proj   IRMAX =      1   max aug-charges    IRDMAX=  18497
   dimension x,y,z NGX =   512 NGY =  512 NGZ =  512
   dimension x,y,z NGXF=  1024 NGYF= 1024 NGZF= 1024
   support grid    NGXF=  1024 NGYF= 1024 NGZF= 1024
   ions per type =               6   6
 NGX,Y,Z   is equivalent  to a cutoff of  24.32, 24.32, 24.32 a.u.
 NGXF,Y,Z  is equivalent  to a cutoff of  48.64, 48.64, 48.64 a.u.


 I would recommend the setting:
   dimension x,y,z NGX =   511 NGY =  511 NGZ =  511
 SYSTEM =  C                                       
 POSCAR =  C H                                     

 Startparameter for this run:
   NWRITE =      2    write-flag & timer
   PREC   = acc       normal or accurate (medium, high low for compatibility)
   ISTART =      0    job   : 0-new  1-cont  2-samecut
   ICHARG =      2    charge: 1-file 2-atom 10-const
   ISPIN  =      1    spin polarized calculation?
   LNONCOLLINEAR =      F non collinear calculations
   LSORBIT =      F    spin-orbit coupling
   INIWAV =      1    electr: 0-lowe 1-rand  2-diag
   LASPH  =      T    aspherical Exc in radial PAW
   METAGGA=      F    non-selfconsistent MetaGGA calc.

 Electronic Relaxation 1
   ENCUT  = 2000.0 eV 147.00 Ry   12.12 a.u. 127.63127.63127.63*2*pi/ulx,y,z
   ENINI  = 2000.0     initial cutoff
   ENAUG  = 1782.2 eV  augmentation charge cutoff
   NELM   =     60;   NELMIN=  2; NELMDL= -5     # of ELM steps 
   EDIFF  = 0.1E-06   stopping-criterion for ELM
   LREAL  =      F    real-space projection
   NLSPLINE    = F    spline interpolate recip. space projectors
   LCOMPAT=      F    compatible to vasp.4.4
   GGA_COMPAT  = T    GGA compatible to vasp.4.4-vasp.4.6
   LMAXPAW     = -100 max onsite density
   LMAXMIX     =    2 max onsite mixed and CHGCAR
   VOSKOWN=      0    Vosko Wilk Nusair interpolation
   ROPT   =    0.00000   0.00000
 Ionic relaxation
   EDIFFG = 0.1E-05   stopping-criterion for IOM
   NSW    =      0    number of steps for IOM
   NBLOCK =      1;   KBLOCK =      1    inner block; outer block 
   IBRION =     -1    ionic relax: 0-MD 1-quasi-New 2-CG
   NFREE  =      0    steps in history (QN), initial steepest desc. (CG)
   ISIF   =      2    stress and relaxation
   IWAVPR =     10    prediction:  0-non 1-charg 2-wave 3-comb
   ISYM   =      2    0-nonsym 1-usesym 2-fastsym
   LCORR  =      T    Harris-Foulkes like correction to forces

   POTIM  = 0.5000    time-step for ionic-motion
   TEIN   =    0.0    initial temperature
   TEBEG  =    0.0;   TEEND  =   0.0 temperature during run
   SMASS  =  -3.00    Nose mass-parameter (am)
   estimated Nose-frequenzy (Omega)   =  0.10E-29 period in steps =****** mass=  -0.280E-25a.u.
   SCALEE = 1.0000    scale energy and forces
   NPACO  =    256;   APACO  = 16.0  distance and # of slots for P.C.
   PSTRESS=    0.0 pullay stress

  Mass of Ions in am
   POMASS =  12.01  1.00
  Ionic Valenz
   ZVAL   =   4.00  1.00
  Atomic Wigner-Seitz radii
   RWIGS  =  -1.00 -1.00
  virtual crystal weights 
   VCA    =   1.00  1.00
   NELECT =      30.0000    total number of electrons
   NUPDOWN=      -1.0000    fix difference up-down

 DOS related values:
   EMIN   =  10.00;   EMAX   =-10.00  energy-range for DOS
   EFERMI =   0.00
   ISMEAR =     0;   SIGMA  =   0.01  broadening in eV -4-tet -1-fermi 0-gaus

 Electronic relaxation 2 (details)
   IALGO  =     38    algorithm
   LDIAG  =      T    sub-space diagonalisation (order eigenvalues)
   LSUBROT=      F    optimize rotation matrix (better conditioning)
   TURBO    =      0    0=normal 1=particle mesh
   IRESTART =      0    0=no restart 2=restart with 2 vectors
   NREBOOT  =      0    no. of reboots
   NMIN     =      0    reboot dimension
   EREF     =   0.00    reference energy to select bands
   IMIX   =      4    mixing-type and parameters
     AMIX     =   0.40;   BMIX     =  1.00
     AMIX_MAG =   1.60;   BMIX_MAG =  1.00
     AMIN     =   0.10
     WC   =   100.;   INIMIX=   1;  MIXPRE=   1;  MAXMIX= -45

 Intra band minimization:
   WEIMIN = 0.0000     energy-eigenvalue tresh-hold
   EBREAK =  0.10E-08  absolut break condition
   DEPER  =   0.30     relativ break condition  

   TIME   =   0.40     timestep for ELM

  volume/ion in A,a.u.               =    3572.92     24111.23
  Fermi-wavevector in a.u.,A,eV,Ry     =   0.145338  0.274650  0.287399  0.021123
  Thomas-Fermi vector in A             =   0.812913
 
 Write flags
   LWAVE  =      T    write WAVECAR
   LCHARG =      T    write CHGCAR
   LVTOT  =      F    write LOCPOT, total local potential
   LVHAR  =      F    write LOCPOT, Hartree potential only
   LELF   =      F    write electronic localiz. function (ELF)
   LORBIT =      0    0 simple, 1 ext, 2 COOP (PROOUT)


 Dipole corrections
   LMONO  =      F    monopole corrections only (constant potential shift)
   LDIPOL =      F    correct potential (dipole corrections)
   IDIPOL =      0    1-x, 2-y, 3-z, 4-all directions 
   EPSILON=  1.0000000 bulk dielectric constant

 Exchange correlation treatment:
   GGA     =    --    GGA type
   LEXCH   =     8    internal setting for exchange type
   VOSKOWN=      0    Vosko Wilk Nusair interpolation
   LHFCALC =     F    Hartree Fock is set to
   LHFONE  =     F    Hartree Fock one center treatment
   AEXX    =    0.0000 exact exchange contribution

 Linear response parameters
   LEPSILON=     F    determine dielectric tensor
   LRPA    =     F    only Hartree local field effects (RPA)
   LNABLA  =     F    use nabla operator in PAW spheres
   LVEL    =     F    velocity operator in full k-point grid
   LINTERFAST=   F  fast interpolation
   KINTER  =     0    interpolate to denser k-point grid
   CSHIFT  =0.1000    complex shift for real part using Kramers Kronig
   OMEGAMAX=  -1.0    maximum frequency
   DEG_THRESHOLD= 0.2000000E-02 threshold for treating states as degnerate
   RTIME   =    0.100 relaxation time in fs

 Orbital magnetization related:
   ORBITALMAG=     F  switch on orbital magnetization
   LCHIMAG   =     F  perturbation theory with respect to B field
   DQ        =  0.001000  dq finite difference perturbation B field



--------------------------------------------------------------------------------------------------------


 Static calculation
 charge density and potential will be updated during run
 non-spin polarized calculation
 Variant of blocked Davidson
 Davidson routine will perform the subspace rotation
 perform sub-space diagonalisation
    after iterative eigenvector-optimisation
 modified Broyden-mixing scheme, WC =      100.0
 initial mixing is a Kerker type mixing with AMIX =  0.4000 and BMIX =      1.0000
 Hartree-type preconditioning will be used
 using additional bands            9
 reciprocal scheme for non local part
 use partial core corrections
 calculate Harris-corrections to forces 
   (improved forces if not selfconsistent)
 use gradient corrections 
 use of overlap-Matrix (Vanderbilt PP)
 Gauss-broadening in eV      SIGMA  =   0.01


--------------------------------------------------------------------------------------------------------


  energy-cutoff  :     2000.00
  volume of cell :    42875.00
      direct lattice vectors                 reciprocal lattice vectors
    35.000000000  0.000000000  0.000000000     0.028571429  0.000000000  0.000000000
     0.000000000 35.000000000  0.000000000     0.000000000  0.028571429  0.000000000
     0.000000000  0.000000000 35.000000000     0.000000000  0.000000000  0.028571429

  length of vectors
    35.000000000 35.000000000 35.000000000     0.028571429  0.028571429  0.028571429


 
 k-points in units of 2pi/SCALE and weight: automatic mesh                          
   0.00000000  0.00000000  0.00000000       1.000
 
 k-points in reciprocal lattice and weights: automatic mesh                          
   0.00000000  0.00000000  0.00000000       1.000
 
 position of ions in fractional coordinates (direct lattice) 
   0.97006214  0.95938074  0.00000000
   0.95844277  0.97555869  0.03446300
   0.95844277  0.97555869  0.96553700
   0.93523437  0.00791889  0.03448440
   0.92367206  0.02414346  0.00000000
   0.93523437  0.00791889  0.96551560
   0.96760420  0.96308403  0.93879100
   0.92621446  0.02046591  0.93874863
   0.90562737  0.04923629  0.00000000
   0.92621446  0.02046591  0.06125137
   0.96760420  0.96308403  0.06120900
   0.98839929  0.93451700  0.00000000
 
 position of ions in cartesian coordinates  (Angst):
  33.95217500 33.57832600  0.00000000
  33.54549700 34.14455400  1.20620500
  33.54549700 34.14455400 33.79379500
  32.73320300  0.27716100  1.20695400
  32.32852200  0.84502100  0.00000000
  32.73320300  0.27716100 33.79304600
  33.86614700 33.70794100 32.85768500
  32.41750600  0.71630700 32.85620200
  31.69695800  1.72327000  0.00000000
  32.41750600  0.71630700  2.14379800
  33.86614700 33.70794100  2.14231500
  34.59397500 32.70809500  0.00000000
 


--------------------------------------------------------------------------------------------------------


 use parallel FFT for wavefunctions z direction half grid
 k-point  1 :   0.0000 0.0000 0.0000  plane waves: 4353902

 maximum and minimum number of plane-waves per node :    544247   544233

 maximum number of plane-waves:   4353902
 maximum index in each direction: 
   IXMAX=  127   IYMAX=  127   IZMAX=  127
   IXMIN= -127   IYMIN= -127   IZMIN=    0

 NGX is ok and might be reduce to 510
 NGY is ok and might be reduce to 510
 NGZ is ok and might be reduce to 510

 parallel 3D FFT for wavefunctions:
    minimum data exchange during FFTs selected (reduces bandwidth)
 parallel 3D FFT for charge:
    minimum data exchange during FFTs selected (reduces bandwidth)


 total amount of memory used by VASP on root node  4407419. kBytes
========================================================================

   base      :      30000. kBytes
   nonl-proj :     296064. kBytes
   fftplans  :    1475802. kBytes
   grid      :    2553282. kBytes
   one-center:         23. kBytes
   wavefun   :      52248. kBytes
 
     INWAV:  cpu time    0.0000: real time    0.0000
 Broyden mixing: mesh for mixing (old mesh)
   NGX =255   NGY =255   NGZ =255
  (NGX  =***   NGY  =***   NGZ  =***)
  gives a total of ****** points

 initial charge density was supplied:
 charge density of overlapping atoms calculated
 number of electron      30.0000000 magnetization 
 keeping initial charge density in first step


--------------------------------------------------------------------------------------------------------


 Maximum index for augmentation-charges          824 (set IRDMAX)


--------------------------------------------------------------------------------------------------------


 First call to EWALD:  gamma=   0.051
 Maximum number of real-space cells 3x 3x 3
 Maximum number of reciprocal cells 3x 3x 3

 FEWALD executed in parallel
    FEWALD:  cpu time    0.0014: real time    0.0014


----------------------------------------- Iteration    1(   1)  ---------------------------------------


    POTLOK:  cpu time   17.7785: real time   17.8237
    SETDIJ:  cpu time    0.1349: real time    0.1353
     EDDAV:  cpu time   16.1244: real time   16.1694
       DOS:  cpu time    0.0003: real time    0.0003
    --------------------------------------------
      LOOP:  cpu time   34.0408: real time   34.1335

 eigenvalue-minimisations  :    48
 total energy-change (2. order) : 0.4088605E+03  (-0.5353669E+03)
 number of electron      30.0000000 magnetization 
 augmentation part       30.0000000 magnetization 

 Free energy of the ion-electron system (eV)
  ---------------------------------------------------
  alpha Z        PSCENC =         0.06577044
  Ewald energy   TEWEN  =      2286.95628960
  -Hartree energ DENC   =     -2895.66793801
  -exchange      EXHF   =         0.00000000
  -V(xc)+E(xc)   XCENC  =        55.73503893
  PAW double counting   =       691.03434805     -659.29071172
  entropy T*S    EENTRO =        -0.00986693
  eigenvalues    EBANDS =       -27.82583020
  atomic energy  EATOM  =       957.86343653
  Solvation  Ediel_sol  =         0.00000000
  ---------------------------------------------------
  free energy    TOTEN  =       408.86053669 eV

  energy without entropy =      408.87040361  energy(sigma->0) =      408.86547015


--------------------------------------------------------------------------------------------------------




----------------------------------------- Iteration    1(   2)  ---------------------------------------


     EDDAV:  cpu time   27.3925: real time   27.4696
       DOS:  cpu time    0.0005: real time    0.0005
    --------------------------------------------
      LOOP:  cpu time   27.3955: real time   27.4753

 eigenvalue-minimisations  :    96
 total energy-change (2. order) :-0.2006191E+03  (-0.1930631E+03)
 number of electron      30.0000000 magnetization 
 augmentation part       30.0000000 magnetization 

 Free energy of the ion-electron system (eV)
  ---------------------------------------------------
  alpha Z        PSCENC =         0.06577044
  Ewald energy   TEWEN  =      2286.95628960
  -Hartree energ DENC   =     -2895.66793801
  -exchange      EXHF   =         0.00000000
  -V(xc)+E(xc)   XCENC  =        55.73503893
  PAW double counting   =       691.03434805     -659.29071172
  entropy T*S    EENTRO =        -0.00006620
  eigenvalues    EBANDS =      -228.45476315
  atomic energy  EATOM  =       957.86343653
  Solvation  Ediel_sol  =         0.00000000
  ---------------------------------------------------
  free energy    TOTEN  =       208.24140446 eV

  energy without entropy =      208.24147067  energy(sigma->0) =      208.24143757


--------------------------------------------------------------------------------------------------------




----------------------------------------- Iteration    1(   3)  ---------------------------------------


     EDDAV:  cpu time   21.7076: real time   21.7693
       DOS:  cpu time    0.0007: real time    0.0007
    --------------------------------------------
      LOOP:  cpu time   21.7107: real time   21.7752

 eigenvalue-minimisations  :    72
 total energy-change (2. order) :-0.1583347E+03  (-0.1474659E+03)
 number of electron      30.0000000 magnetization 
 augmentation part       30.0000000 magnetization 

 Free energy of the ion-electron system (eV)
  ---------------------------------------------------
  alpha Z        PSCENC =         0.06577044
  Ewald energy   TEWEN  =      2286.95628960
  -Hartree energ DENC   =     -2895.66793801
  -exchange      EXHF   =         0.00000000
  -V(xc)+E(xc)   XCENC  =        55.73503893
  PAW double counting   =       691.03434805     -659.29071172
  entropy T*S    EENTRO =        -0.00000000
  eigenvalues    EBANDS =      -386.78952962
  atomic energy  EATOM  =       957.86343653
  Solvation  Ediel_sol  =         0.00000000
  ---------------------------------------------------
  free energy    TOTEN  =        49.90670419 eV

  energy without entropy =       49.90670419  energy(sigma->0) =       49.90670419


--------------------------------------------------------------------------------------------------------




----------------------------------------- Iteration    1(   4)  ---------------------------------------


     EDDAV:  cpu time   23.5948: real time   23.6619
       DOS:  cpu time    0.0007: real time    0.0007
    --------------------------------------------
      LOOP:  cpu time   23.5980: real time   23.6674

 eigenvalue-minimisations  :    80
 total energy-change (2. order) :-0.1053553E+03  (-0.1050382E+03)
 number of electron      30.0000000 magnetization 
 augmentation part       30.0000000 magnetization 

 Free energy of the ion-electron system (eV)
  ---------------------------------------------------
  alpha Z        PSCENC =         0.06577044
  Ewald energy   TEWEN  =      2286.95628960
  -Hartree energ DENC   =     -2895.66793801
  -exchange      EXHF   =         0.00000000
  -V(xc)+E(xc)   XCENC  =        55.73503893
  PAW double counting   =       691.03434805     -659.29071172
  entropy T*S    EENTRO =        -0.00000000
  eigenvalues    EBANDS =      -492.14479678
  atomic energy  EATOM  =       957.86343653
  Solvation  Ediel_sol  =         0.00000000
  ---------------------------------------------------
  free energy    TOTEN  =       -55.44856296 eV

  energy without entropy =      -55.44856296  energy(sigma->0) =      -55.44856296


--------------------------------------------------------------------------------------------------------




----------------------------------------- Iteration    1(   5)  ---------------------------------------


     EDDAV:  cpu time   21.7142: real time   21.7749
       DOS:  cpu time    0.0008: real time    0.0008
    CHARGE:  cpu time   10.2799: real time   10.3086
    MIXING:  cpu time    0.4367: real time    0.4378
    --------------------------------------------
      LOOP:  cpu time   32.4341: real time   32.5270

 eigenvalue-minimisations  :    72
 total energy-change (2. order) :-0.2675001E+02  (-0.2671585E+02)
 number of electron      30.0000000 magnetization 
 augmentation part        0.0996444 magnetization 

 Broyden mixing:
  rms(total) = 0.12756E+01    rms(broyden)= 0.12756E+01
  rms(prec ) = 0.13205E+01
  weight for this iteration     100.00

 Free energy of the ion-electron system (eV)
  ---------------------------------------------------
  alpha Z        PSCENC =         0.06577044
  Ewald energy   TEWEN  =      2286.95628960
  -Hartree energ DENC   =     -2895.66793801
  -exchange      EXHF   =         0.00000000
  -V(xc)+E(xc)   XCENC  =        55.73503893
  PAW double counting   =       691.03434805     -659.29071172
  entropy T*S    EENTRO =        -0.00000000
  eigenvalues    EBANDS =      -518.89481065
  atomic energy  EATOM  =       957.86343653
  Solvation  Ediel_sol  =         0.00000000
  ---------------------------------------------------
  free energy    TOTEN  =       -82.19857684 eV

  energy without entropy =      -82.19857684  energy(sigma->0) =      -82.19857684


--------------------------------------------------------------------------------------------------------




----------------------------------------- Iteration    1(   6)  ---------------------------------------


    POTLOK:  cpu time   17.4225: real time   17.4651
    SETDIJ:  cpu time    0.1412: real time    0.1415
     EDDAV:  cpu time   25.4713: real time   25.5441
       DOS:  cpu time    0.0012: real time    0.0012
    CHARGE:  cpu time   10.2219: real time   10.2503
    MIXING:  cpu time    0.4525: real time    0.4536
    --------------------------------------------
      LOOP:  cpu time   53.7134: real time   53.8610

 eigenvalue-minimisations  :    88
 total energy-change (2. order) : 0.3661877E+01  (-0.2068105E+01)
 number of electron      30.0000000 magnetization 
 augmentation part        0.1081910 magnetization 

 Broyden mixing:
  rms(total) = 0.71284E+00    rms(broyden)= 0.71284E+00
  rms(prec ) = 0.74081E+00
  weight for this iteration     100.00

 eigenvalues of (default mixing * dielectric matrix)
  average eigenvalue GAMMA=   2.1389
  2.1389

 Free energy of the ion-electron system (eV)
  ---------------------------------------------------
  alpha Z        PSCENC =         0.06577044
  Ewald energy   TEWEN  =      2286.95628960
  -Hartree energ DENC   =     -2953.11678660
  -exchange      EXHF   =         0.00000000
  -V(xc)+E(xc)   XCENC  =        58.39712935
  PAW double counting   =       851.61459271     -820.19355905
  entropy T*S    EENTRO =        -0.00000000
  eigenvalues    EBANDS =      -460.12357317
  atomic energy  EATOM  =       957.86343653
  Solvation  Ediel_sol  =         0.00000000
  ---------------------------------------------------
  free energy    TOTEN  =       -78.53670019 eV

  energy without entropy =      -78.53670019  energy(sigma->0) =      -78.53670019


--------------------------------------------------------------------------------------------------------




----------------------------------------- Iteration    1(   7)  ---------------------------------------


    POTLOK:  cpu time   17.4669: real time   17.5095
    SETDIJ:  cpu time    0.1406: real time    0.1409
     EDDAV:  cpu time   23.5823: real time   23.6494
       DOS:  cpu time    0.0010: real time    0.0010
    CHARGE:  cpu time   10.2418: real time   10.2702
    MIXING:  cpu time    0.4674: real time    0.4685
    --------------------------------------------
      LOOP:  cpu time   51.9026: real time   52.0448

 eigenvalue-minimisations  :    80
 total energy-change (2. order) : 0.2269895E+01  (-0.1178272E+01)
 number of electron      30.0000000 magnetization 
 augmentation part        0.0916783 magnetization 

 Broyden mixing:
  rms(total) = 0.25796E+00    rms(broyden)= 0.25796E+00
  rms(prec ) = 0.26634E+00
  weight for this iteration     100.00

 eigenvalues of (default mixing * dielectric matrix)
  average eigenvalue GAMMA=   1.2936
  2.0591  0.5280

 Free energy of the ion-electron system (eV)
  ---------------------------------------------------
  alpha Z        PSCENC =         0.06577044
  Ewald energy   TEWEN  =      2286.95628960
  -Hartree energ DENC   =     -3035.04138967
  -exchange      EXHF   =         0.00000000
  -V(xc)+E(xc)   XCENC  =        62.30050873
  PAW double counting   =       947.56933402     -916.42098099
  entropy T*S    EENTRO =        -0.00000000
  eigenvalues    EBANDS =      -379.55977335
  atomic energy  EATOM  =       957.86343653
  Solvation  Ediel_sol  =         0.00000000
  ---------------------------------------------------
  free energy    TOTEN  =       -76.26680470 eV

  energy without entropy =      -76.26680470  energy(sigma->0) =      -76.26680470


--------------------------------------------------------------------------------------------------------




----------------------------------------- Iteration    1(   8)  ---------------------------------------


    POTLOK:  cpu time   17.4763: real time   17.5189
    SETDIJ:  cpu time    0.1380: real time    0.1383
     EDDAV:  cpu time   25.4769: real time   25.5490
       DOS:  cpu time    0.0011: real time    0.0011
    CHARGE:  cpu time   10.2371: real time   10.2655
    MIXING:  cpu time    0.4753: real time    0.4764
    --------------------------------------------
      LOOP:  cpu time   53.8074: real time   53.9544

 eigenvalue-minimisations  :    88
 total energy-change (2. order) : 0.6046991E-01  (-0.6114681E-01)
 number of electron      30.0000000 magnetization 
 augmentation part        0.0944300 magnetization 

 Broyden mixing:
  rms(total) = 0.19180E+00    rms(broyden)= 0.19180E+00
  rms(prec ) = 0.19827E+00
  weight for this iteration     100.00

 eigenvalues of (default mixing * dielectric matrix)
  average eigenvalue GAMMA=   1.5517
  2.2861  1.1846  1.1846

 Free energy of the ion-electron system (eV)
  ---------------------------------------------------
  alpha Z        PSCENC =         0.06577044
  Ewald energy   TEWEN  =      2286.95628960
  -Hartree energ DENC   =     -3031.00559181
  -exchange      EXHF   =         0.00000000
  -V(xc)+E(xc)   XCENC  =        62.14194082
  PAW double counting   =       920.08367646     -888.86812797
  entropy T*S    EENTRO =        -0.00000000
  eigenvalues    EBANDS =      -383.44372886
  atomic energy  EATOM  =       957.86343653
  Solvation  Ediel_sol  =         0.00000000
  ---------------------------------------------------
  free energy    TOTEN  =       -76.20633479 eV

  energy without entropy =      -76.20633479  energy(sigma->0) =      -76.20633479


--------------------------------------------------------------------------------------------------------




----------------------------------------- Iteration    1(   9)  ---------------------------------------


    POTLOK:  cpu time   17.5121: real time   17.5548
    SETDIJ:  cpu time    0.1399: real time    0.1402
     EDDAV:  cpu time   23.6014: real time   23.6683
       DOS:  cpu time    0.0013: real time    0.0013
    CHARGE:  cpu time   10.2252: real time   10.2536
    MIXING:  cpu time    0.4922: real time    0.4934
    --------------------------------------------
      LOOP:  cpu time   51.9746: real time   52.1168

 eigenvalue-minimisations  :    80
 total energy-change (2. order) : 0.1166608E+00  (-0.2261110E-01)
 number of electron      30.0000000 magnetization 
 augmentation part        0.1017341 magnetization 

 Broyden mixing:
  rms(total) = 0.62106E-01    rms(broyden)= 0.62106E-01
  rms(prec ) = 0.66939E-01
  weight for this iteration     100.00

 eigenvalues of (default mixing * dielectric matrix)
  average eigenvalue GAMMA=   1.4697
  2.2156  1.7488  0.9573  0.9573

 Free energy of the ion-electron system (eV)
  ---------------------------------------------------
  alpha Z        PSCENC =         0.06577044
  Ewald energy   TEWEN  =      2286.95628960
  -Hartree energ DENC   =     -3035.37068759
  -exchange      EXHF   =         0.00000000
  -V(xc)+E(xc)   XCENC  =        62.44908611
  PAW double counting   =       885.47939306     -854.16742005
  entropy T*S    EENTRO =        -0.00000000
  eigenvalues    EBANDS =      -379.36554203
  atomic energy  EATOM  =       957.86343653
  Solvation  Ediel_sol  =         0.00000000
  ---------------------------------------------------
  free energy    TOTEN  =       -76.08967394 eV

  energy without entropy =      -76.08967394  energy(sigma->0) =      -76.08967394


--------------------------------------------------------------------------------------------------------




----------------------------------------- Iteration    1(  10)  ---------------------------------------


    POTLOK:  cpu time   17.4978: real time   17.5404
    SETDIJ:  cpu time    0.1399: real time    0.1403
     EDDAV:  cpu time   27.3745: real time   27.4506
       DOS:  cpu time    0.0013: real time    0.0013
    CHARGE:  cpu time   10.2433: real time   10.2718
    MIXING:  cpu time    0.5140: real time    0.5153
    --------------------------------------------
      LOOP:  cpu time   55.7734: real time   55.9249

 eigenvalue-minimisations  :    96
 total energy-change (2. order) : 0.6762596E-02  (-0.1228704E-01)
 number of electron      30.0000000 magnetization 
 augmentation part        0.1181248 magnetization 

 Broyden mixing:
  rms(total) = 0.45143E-01    rms(broyden)= 0.45143E-01
  rms(prec ) = 0.49950E-01
  weight for this iteration     100.00

 eigenvalues of (default mixing * dielectric matrix)
  average eigenvalue GAMMA=   1.4758
  2.4366  1.8963  0.9512  1.0474  1.0474

 Free energy of the ion-electron system (eV)
  ---------------------------------------------------
  alpha Z        PSCENC =         0.06577044
  Ewald energy   TEWEN  =      2286.95628960
  -Hartree energ DENC   =     -3036.63846262
  -exchange      EXHF   =         0.00000000
  -V(xc)+E(xc)   XCENC  =        62.46077801
  PAW double counting   =       872.21818563     -840.85587056
  entropy T*S    EENTRO =        -0.00000000
  eigenvalues    EBANDS =      -378.15303837
  atomic energy  EATOM  =       957.86343653
  Solvation  Ediel_sol  =         0.00000000
  ---------------------------------------------------
  free energy    TOTEN  =       -76.08291135 eV

  energy without entropy =      -76.08291135  energy(sigma->0) =      -76.08291135


--------------------------------------------------------------------------------------------------------




----------------------------------------- Iteration    1(  11)  ---------------------------------------


    POTLOK:  cpu time   17.5326: real time   17.5754
    SETDIJ:  cpu time    0.1394: real time    0.1398
     EDDAV:  cpu time   23.5949: real time   23.6618
       DOS:  cpu time    0.0004: real time    0.0004
    CHARGE:  cpu time   10.2339: real time   10.2625
    MIXING:  cpu time    0.5267: real time    0.5280
    --------------------------------------------
      LOOP:  cpu time   52.0306: real time   52.1729

 eigenvalue-minimisations  :    80
 total energy-change (2. order) : 0.1439411E-01  (-0.3198698E-02)
 number of electron      30.0000000 magnetization 
 augmentation part        0.1186472 magnetization 

 Broyden mixing:
  rms(total) = 0.19912E-01    rms(broyden)= 0.19912E-01
  rms(prec ) = 0.24136E-01
  weight for this iteration     100.00

 eigenvalues of (default mixing * dielectric matrix)
  average eigenvalue GAMMA=   1.6626
  3.0862  2.3814  1.2968  1.2968  0.9574  0.9574

 Free energy of the ion-electron system (eV)
  ---------------------------------------------------
  alpha Z        PSCENC =         0.06577044
  Ewald energy   TEWEN  =      2286.95628960
  -Hartree energ DENC   =     -3041.99068544
  -exchange      EXHF   =         0.00000000
  -V(xc)+E(xc)   XCENC  =        62.56876257
  PAW double counting   =       917.15964318     -885.82601321
  entropy T*S    EENTRO =        -0.00000000
  eigenvalues    EBANDS =      -372.86572089
  atomic energy  EATOM  =       957.86343653
  Solvation  Ediel_sol  =         0.00000000
  ---------------------------------------------------
  free energy    TOTEN  =       -76.06851723 eV

  energy without entropy =      -76.06851723  energy(sigma->0) =      -76.06851723


--------------------------------------------------------------------------------------------------------




----------------------------------------- Iteration    1(  12)  ---------------------------------------


    POTLOK:  cpu time   17.5670: real time   17.6099
    SETDIJ:  cpu time    0.1403: real time    0.1406
     EDDAV:  cpu time   21.7075: real time   21.7693
       DOS:  cpu time    0.0007: real time    0.0007
    CHARGE:  cpu time   10.2214: real time   10.2497
    MIXING:  cpu time    0.5435: real time    0.5449
    --------------------------------------------
      LOOP:  cpu time   50.1831: real time   50.3203

 eigenvalue-minimisations  :    72
 total energy-change (2. order) : 0.6439908E-02  (-0.1487918E-02)
 number of electron      30.0000000 magnetization 
 augmentation part        0.1184381 magnetization 

 Broyden mixing:
  rms(total) = 0.12985E-01    rms(broyden)= 0.12985E-01
  rms(prec ) = 0.14962E-01
  weight for this iteration     100.00

 eigenvalues of (default mixing * dielectric matrix)
  average eigenvalue GAMMA=   1.7467
  3.5145  2.4570  1.8379  1.2468  1.2468  0.9619  0.9619

 Free energy of the ion-electron system (eV)
  ---------------------------------------------------
  alpha Z        PSCENC =         0.06577044
  Ewald energy   TEWEN  =      2286.95628960
  -Hartree energ DENC   =     -3047.38628700
  -exchange      EXHF   =         0.00000000
  -V(xc)+E(xc)   XCENC  =        62.62402080
  PAW double counting   =       960.09117766     -928.78249194
  entropy T*S    EENTRO =        -0.00000000
  eigenvalues    EBANDS =      -367.49399340
  atomic energy  EATOM  =       957.86343653
  Solvation  Ediel_sol  =         0.00000000
  ---------------------------------------------------
  free energy    TOTEN  =       -76.06207732 eV

  energy without entropy =      -76.06207732  energy(sigma->0) =      -76.06207732


--------------------------------------------------------------------------------------------------------




----------------------------------------- Iteration    1(  13)  ---------------------------------------


    POTLOK:  cpu time   17.5211: real time   17.5638
    SETDIJ:  cpu time    0.1385: real time    0.1388
     EDDAV:  cpu time   27.3677: real time   27.4462
       DOS:  cpu time    0.0006: real time    0.0006
    CHARGE:  cpu time   10.2294: real time   10.2578
    MIXING:  cpu time    0.5620: real time    0.5634
    --------------------------------------------
      LOOP:  cpu time   55.8219: real time   55.9755

 eigenvalue-minimisations  :    96
 total energy-change (2. order) :-0.6326993E-02  (-0.5046260E-03)
 number of electron      30.0000000 magnetization 
 augmentation part        0.1188651 magnetization 

 Broyden mixing:
  rms(total) = 0.13728E-01    rms(broyden)= 0.13728E-01
  rms(prec ) = 0.14707E-01
  weight for this iteration     100.00

 eigenvalues of (default mixing * dielectric matrix)
  average eigenvalue GAMMA=   1.9354
  5.0274  2.7479  2.1700  1.3213  1.3213  0.9738  0.9738  0.9478

 Free energy of the ion-electron system (eV)
  ---------------------------------------------------
  alpha Z        PSCENC =         0.06577044
  Ewald energy   TEWEN  =      2286.95628960
  -Hartree energ DENC   =     -3050.48634450
  -exchange      EXHF   =         0.00000000
  -V(xc)+E(xc)   XCENC  =        62.67120295
  PAW double counting   =       953.94810791     -922.64007303
  entropy T*S    EENTRO =        -0.00000000
  eigenvalues    EBANDS =      -364.44679421
  atomic energy  EATOM  =       957.86343653
  Solvation  Ediel_sol  =         0.00000000
  ---------------------------------------------------
  free energy    TOTEN  =       -76.06840432 eV

  energy without entropy =      -76.06840432  energy(sigma->0) =      -76.06840432


--------------------------------------------------------------------------------------------------------




----------------------------------------- Iteration    1(  14)  ---------------------------------------


    POTLOK:  cpu time   17.5619: real time   17.6048
    SETDIJ:  cpu time    0.1395: real time    0.1398
     EDDAV:  cpu time   25.4920: real time   25.5644
       DOS:  cpu time    0.0007: real time    0.0007
    CHARGE:  cpu time   10.2480: real time   10.2766
    MIXING:  cpu time    0.5812: real time    0.5826
    --------------------------------------------
      LOOP:  cpu time   54.0260: real time   54.1742

 eigenvalue-minimisations  :    88
 total energy-change (2. order) :-0.7068487E-02  (-0.3235896E-03)
 number of electron      30.0000000 magnetization 
 augmentation part        0.1194798 magnetization 

 Broyden mixing:
  rms(total) = 0.29898E-02    rms(broyden)= 0.29898E-02
  rms(prec ) = 0.39009E-02
  weight for this iteration     100.00

 eigenvalues of (default mixing * dielectric matrix)
  average eigenvalue GAMMA=   2.0267
  5.4714  3.0948  2.4347  1.6586  1.3043  1.3043  1.0787  0.9470  0.9470

 Free energy of the ion-electron system (eV)
  ---------------------------------------------------
  alpha Z        PSCENC =         0.06577044
  Ewald energy   TEWEN  =      2286.95628960
  -Hartree energ DENC   =     -3051.46955650
  -exchange      EXHF   =         0.00000000
  -V(xc)+E(xc)   XCENC  =        62.67733382
  PAW double counting   =       938.78896188     -907.46838127
  entropy T*S    EENTRO =        -0.00000000
  eigenvalues    EBANDS =      -363.48932730
  atomic energy  EATOM  =       957.86343653
  Solvation  Ediel_sol  =         0.00000000
  ---------------------------------------------------
  free energy    TOTEN  =       -76.07547280 eV

  energy without entropy =      -76.07547280  energy(sigma->0) =      -76.07547280


--------------------------------------------------------------------------------------------------------




----------------------------------------- Iteration    1(  15)  ---------------------------------------


    POTLOK:  cpu time   17.5174: real time   17.5601
    SETDIJ:  cpu time    0.1383: real time    0.1386
     EDDAV:  cpu time   19.8193: real time   19.8764
       DOS:  cpu time    0.0009: real time    0.0009
    CHARGE:  cpu time   10.2395: real time   10.2678
    MIXING:  cpu time    0.6115: real time    0.6130
    --------------------------------------------
      LOOP:  cpu time   48.3296: real time   48.4620

 eigenvalue-minimisations  :    64
 total energy-change (2. order) :-0.7941226E-02  (-0.1210145E-03)
 number of electron      30.0000000 magnetization 
 augmentation part        0.1201445 magnetization 

 Broyden mixing:
  rms(total) = 0.42184E-02    rms(broyden)= 0.42184E-02
  rms(prec ) = 0.44984E-02
  weight for this iteration     100.00

 eigenvalues of (default mixing * dielectric matrix)
  average eigenvalue GAMMA=   2.1021
  6.3337  3.3749  2.5044  2.1538  1.3236  1.3236  1.1283  0.9899  0.9899  0.8989

 Free energy of the ion-electron system (eV)
  ---------------------------------------------------
  alpha Z        PSCENC =         0.06577044
  Ewald energy   TEWEN  =      2286.95628960
  -Hartree energ DENC   =     -3051.98109809
  -exchange      EXHF   =         0.00000000
  -V(xc)+E(xc)   XCENC  =        62.67353673
  PAW double counting   =       941.03800651     -909.71766600
  entropy T*S    EENTRO =        -0.00000000
  eigenvalues    EBANDS =      -362.98168974
  atomic energy  EATOM  =       957.86343653
  Solvation  Ediel_sol  =         0.00000000
  ---------------------------------------------------
  free energy    TOTEN  =       -76.08341403 eV

  energy without entropy =      -76.08341403  energy(sigma->0) =      -76.08341403


--------------------------------------------------------------------------------------------------------




----------------------------------------- Iteration    1(  16)  ---------------------------------------


    POTLOK:  cpu time   17.5427: real time   17.5855
    SETDIJ:  cpu time    0.1397: real time    0.1401
     EDDAV:  cpu time   25.4995: real time   25.5714
       DOS:  cpu time    0.0008: real time    0.0007
    CHARGE:  cpu time   10.2369: real time   10.2655
    MIXING:  cpu time    0.6281: real time    0.6296
    --------------------------------------------
      LOOP:  cpu time   54.0504: real time   54.1985

 eigenvalue-minimisations  :    88
 total energy-change (2. order) :-0.3937766E-02  (-0.8071276E-04)
 number of electron      30.0000000 magnetization 
 augmentation part        0.1200717 magnetization 

 Broyden mixing:
  rms(total) = 0.11313E-02    rms(broyden)= 0.11313E-02
  rms(prec ) = 0.13798E-02
  weight for this iteration     100.00

 eigenvalues of (default mixing * dielectric matrix)
  average eigenvalue GAMMA=   2.1755
  7.1312  4.1361  2.5986  2.2281  1.3259  1.3259  1.1705  1.1705  0.9393  0.9393
  0.9657

 Free energy of the ion-electron system (eV)
  ---------------------------------------------------
  alpha Z        PSCENC =         0.06577044
  Ewald energy   TEWEN  =      2286.95628960
  -Hartree energ DENC   =     -3052.41904925
  -exchange      EXHF   =         0.00000000
  -V(xc)+E(xc)   XCENC  =        62.66662289
  PAW double counting   =       950.49841871     -919.18394916
  entropy T*S    EENTRO =        -0.00000000
  eigenvalues    EBANDS =      -362.53489155
  atomic energy  EATOM  =       957.86343653
  Solvation  Ediel_sol  =         0.00000000
  ---------------------------------------------------
  free energy    TOTEN  =       -76.08735180 eV

  energy without entropy =      -76.08735180  energy(sigma->0) =      -76.08735180


--------------------------------------------------------------------------------------------------------




----------------------------------------- Iteration    1(  17)  ---------------------------------------


    POTLOK:  cpu time   17.5184: real time   17.5611
    SETDIJ:  cpu time    0.1405: real time    0.1408
     EDDAV:  cpu time   23.5909: real time   23.6584
       DOS:  cpu time    0.0008: real time    0.0008
    CHARGE:  cpu time   10.2621: real time   10.2906
    MIXING:  cpu time    0.6537: real time    0.6553
    --------------------------------------------
      LOOP:  cpu time   52.1692: real time   52.3121

 eigenvalue-minimisations  :    80
 total energy-change (2. order) :-0.1603661E-02  (-0.1302220E-04)
 number of electron      30.0000000 magnetization 
 augmentation part        0.1201266 magnetization 

 Broyden mixing:
  rms(total) = 0.71592E-03    rms(broyden)= 0.71592E-03
  rms(prec ) = 0.85887E-03
  weight for this iteration     100.00

 eigenvalues of (default mixing * dielectric matrix)
  average eigenvalue GAMMA=   2.2553
  7.5365  4.7029  2.6945  2.4329  1.8947  1.3292  1.3292  1.1275  1.1275  0.9362
  0.9362  1.0159

 Free energy of the ion-electron system (eV)
  ---------------------------------------------------
  alpha Z        PSCENC =         0.06577044
  Ewald energy   TEWEN  =      2286.95628960
  -Hartree energ DENC   =     -3052.41311074
  -exchange      EXHF   =         0.00000000
  -V(xc)+E(xc)   XCENC  =        62.66165229
  PAW double counting   =       950.10298098     -918.78789635
  entropy T*S    EENTRO =        -0.00000000
  eigenvalues    EBANDS =      -362.53807822
  atomic energy  EATOM  =       957.86343653
  Solvation  Ediel_sol  =         0.00000000
  ---------------------------------------------------
  free energy    TOTEN  =       -76.08895546 eV

  energy without entropy =      -76.08895546  energy(sigma->0) =      -76.08895546


--------------------------------------------------------------------------------------------------------




----------------------------------------- Iteration    1(  18)  ---------------------------------------


    POTLOK:  cpu time   17.5319: real time   17.5747
    SETDIJ:  cpu time    0.1417: real time    0.1420
     EDDAV:  cpu time   27.3773: real time   27.4559
       DOS:  cpu time    0.0005: real time    0.0005
    CHARGE:  cpu time   10.2377: real time   10.2661
    MIXING:  cpu time    0.6808: real time    0.6825
    --------------------------------------------
      LOOP:  cpu time   55.9724: real time   56.1266

 eigenvalue-minimisations  :    96
 total energy-change (2. order) :-0.1120112E-02  (-0.5486809E-05)
 number of electron      30.0000000 magnetization 
 augmentation part        0.1202887 magnetization 

 Broyden mixing:
  rms(total) = 0.52635E-03    rms(broyden)= 0.52635E-03
  rms(prec ) = 0.59035E-03
  weight for this iteration     100.00

 eigenvalues of (default mixing * dielectric matrix)
  average eigenvalue GAMMA=   2.2937
  8.0663  5.1653  2.7423  2.7423  2.2132  1.3238  1.3238  1.1919  1.1919  0.9119
  1.0175  0.9642  0.9642

 Free energy of the ion-electron system (eV)
  ---------------------------------------------------
  alpha Z        PSCENC =         0.06577044
  Ewald energy   TEWEN  =      2286.95628960
  -Hartree energ DENC   =     -3052.49061465
  -exchange      EXHF   =         0.00000000
  -V(xc)+E(xc)   XCENC  =        62.66047306
  PAW double counting   =       949.11556271     -917.80002858
  entropy T*S    EENTRO =        -0.00000000
  eigenvalues    EBANDS =      -362.46096468
  atomic energy  EATOM  =       957.86343653
  Solvation  Ediel_sol  =         0.00000000
  ---------------------------------------------------
  free energy    TOTEN  =       -76.09007557 eV

  energy without entropy =      -76.09007557  energy(sigma->0) =      -76.09007557


--------------------------------------------------------------------------------------------------------




----------------------------------------- Iteration    1(  19)  ---------------------------------------


    POTLOK:  cpu time   17.5036: real time   17.5462
    SETDIJ:  cpu time    0.1399: real time    0.1402
     EDDAV:  cpu time   25.4814: real time   25.5537
       DOS:  cpu time    0.0005: real time    0.0005
    CHARGE:  cpu time   10.2410: real time   10.2696
    MIXING:  cpu time    0.7044: real time    0.7062
    --------------------------------------------
      LOOP:  cpu time   54.0735: real time   54.2215

 eigenvalue-minimisations  :    88
 total energy-change (2. order) :-0.5057933E-03  (-0.2536400E-05)
 number of electron      30.0000000 magnetization 
 augmentation part        0.1203234 magnetization 

 Broyden mixing:
  rms(total) = 0.40443E-03    rms(broyden)= 0.40443E-03
  rms(prec ) = 0.43581E-03
  weight for this iteration     100.00

 eigenvalues of (default mixing * dielectric matrix)
  average eigenvalue GAMMA=   2.3580
  8.4675  5.5952  3.5282  2.4964  2.2413  1.8371  1.3265  1.3265  1.2782  1.0466
  1.0466  0.9259  0.9482  0.9482

 Free energy of the ion-electron system (eV)
  ---------------------------------------------------
  alpha Z        PSCENC =         0.06577044
  Ewald energy   TEWEN  =      2286.95628960
  -Hartree energ DENC   =     -3052.46678728
  -exchange      EXHF   =         0.00000000
  -V(xc)+E(xc)   XCENC  =        62.65958305
  PAW double counting   =       948.01752499     -916.70131483
  entropy T*S    EENTRO =        -0.00000000
  eigenvalues    EBANDS =      -362.48508385
  atomic energy  EATOM  =       957.86343653
  Solvation  Ediel_sol  =         0.00000000
  ---------------------------------------------------
  free energy    TOTEN  =       -76.09058136 eV

  energy without entropy =      -76.09058136  energy(sigma->0) =      -76.09058136


--------------------------------------------------------------------------------------------------------




----------------------------------------- Iteration    1(  20)  ---------------------------------------


    POTLOK:  cpu time   17.4861: real time   17.5288
    SETDIJ:  cpu time    0.1398: real time    0.1401
     EDDAV:  cpu time   27.3847: real time   27.4622
       DOS:  cpu time    0.0006: real time    0.0006
    CHARGE:  cpu time   10.2438: real time   10.2723
    MIXING:  cpu time    0.7395: real time    0.7413
    --------------------------------------------
      LOOP:  cpu time   55.9972: real time   56.1509

 eigenvalue-minimisations  :    96
 total energy-change (2. order) :-0.2364398E-03  (-0.6886646E-06)
 number of electron      30.0000000 magnetization 
 augmentation part        0.1203221 magnetization 

 Broyden mixing:
  rms(total) = 0.82136E-04    rms(broyden)= 0.82136E-04
  rms(prec ) = 0.10917E-03
  weight for this iteration     100.00

 eigenvalues of (default mixing * dielectric matrix)
  average eigenvalue GAMMA=   2.3580
  8.6891  5.8712  3.8312  2.4423  2.4423  2.0429  1.3269  1.3269  1.2633  1.2633
  1.0638  0.9434  0.9434  0.9603  0.9603

 Free energy of the ion-electron system (eV)
  ---------------------------------------------------
  alpha Z        PSCENC =         0.06577044
  Ewald energy   TEWEN  =      2286.95628960
  -Hartree energ DENC   =     -3052.51795607
  -exchange      EXHF   =         0.00000000
  -V(xc)+E(xc)   XCENC  =        62.66003462
  PAW double counting   =       949.27955324     -917.96412382
  entropy T*S    EENTRO =        -0.00000000
  eigenvalues    EBANDS =      -362.43382234
  atomic energy  EATOM  =       957.86343653
  Solvation  Ediel_sol  =         0.00000000
  ---------------------------------------------------
  free energy    TOTEN  =       -76.09081780 eV

  energy without entropy =      -76.09081780  energy(sigma->0) =      -76.09081780


--------------------------------------------------------------------------------------------------------




----------------------------------------- Iteration    1(  21)  ---------------------------------------


    POTLOK:  cpu time   17.4457: real time   17.4882
    SETDIJ:  cpu time    0.1397: real time    0.1400
     EDDAV:  cpu time   23.5933: real time   23.6590
       DOS:  cpu time    0.0006: real time    0.0006
    CHARGE:  cpu time   10.2295: real time   10.2581
    MIXING:  cpu time    0.7644: real time    0.7662
    --------------------------------------------
      LOOP:  cpu time   52.1757: real time   52.3174

 eigenvalue-minimisations  :    80
 total energy-change (2. order) :-0.8406161E-04  (-0.4335615E-07)
 number of electron      30.0000000 magnetization 
 augmentation part        0.1203278 magnetization 

 Broyden mixing:
  rms(total) = 0.58987E-04    rms(broyden)= 0.58987E-04
  rms(prec ) = 0.74639E-04
  weight for this iteration     100.00

 eigenvalues of (default mixing * dielectric matrix)
  average eigenvalue GAMMA=   2.4053
  9.0178  6.1659  4.2971  2.8359  2.2910  2.2910  1.8331  1.3269  1.3269  1.1620
  1.1620  1.0043  1.0043  0.9051  0.9309  0.9309

 Free energy of the ion-electron system (eV)
  ---------------------------------------------------
  alpha Z        PSCENC =         0.06577044
  Ewald energy   TEWEN  =      2286.95628960
  -Hartree energ DENC   =     -3052.52538633
  -exchange      EXHF   =         0.00000000
  -V(xc)+E(xc)   XCENC  =        62.65995745
  PAW double counting   =       949.37409586     -918.05870064
  entropy T*S    EENTRO =        -0.00000000
  eigenvalues    EBANDS =      -362.42636477
  atomic energy  EATOM  =       957.86343653
  Solvation  Ediel_sol  =         0.00000000
  ---------------------------------------------------
  free energy    TOTEN  =       -76.09090186 eV

  energy without entropy =      -76.09090186  energy(sigma->0) =      -76.09090186


--------------------------------------------------------------------------------------------------------




----------------------------------------- Iteration    1(  22)  ---------------------------------------


    POTLOK:  cpu time   17.4201: real time   17.4625
    SETDIJ:  cpu time    0.1419: real time    0.1423
     EDDAV:  cpu time   14.1597: real time   14.1994
       DOS:  cpu time    0.0004: real time    0.0004
    CHARGE:  cpu time   10.2327: real time   10.2611
    MIXING:  cpu time    0.7948: real time    0.7967
    --------------------------------------------
      LOOP:  cpu time   42.7522: real time   42.8674

 eigenvalue-minimisations  :    40
 total energy-change (2. order) :-0.5822326E-04  (-0.2257840E-07)
 number of electron      30.0000000 magnetization 
 augmentation part        0.1203294 magnetization 

 Broyden mixing:
  rms(total) = 0.33103E-04    rms(broyden)= 0.33103E-04
  rms(prec ) = 0.40784E-04
  weight for this iteration     100.00

 eigenvalues of (default mixing * dielectric matrix)
  average eigenvalue GAMMA=   2.4125
  9.0475  6.5322  4.6052  3.2224  2.5352  2.1683  1.9257  1.3265  1.3265  1.1773
  1.1773  1.2133  0.9632  0.9632  0.9444  0.9444  0.9398

 Free energy of the ion-electron system (eV)
  ---------------------------------------------------
  alpha Z        PSCENC =         0.06577044
  Ewald energy   TEWEN  =      2286.95628960
  -Hartree energ DENC   =     -3052.52904544
  -exchange      EXHF   =         0.00000000
  -V(xc)+E(xc)   XCENC  =        62.65975517
  PAW double counting   =       949.33788643     -918.02245370
  entropy T*S    EENTRO =        -0.00000000
  eigenvalues    EBANDS =      -362.42259912
  atomic energy  EATOM  =       957.86343653
  Solvation  Ediel_sol  =         0.00000000
  ---------------------------------------------------
  free energy    TOTEN  =       -76.09096009 eV

  energy without entropy =      -76.09096009  energy(sigma->0) =      -76.09096009


--------------------------------------------------------------------------------------------------------




----------------------------------------- Iteration    1(  23)  ---------------------------------------


    POTLOK:  cpu time   17.4341: real time   17.4766
    SETDIJ:  cpu time    0.1393: real time    0.1396
     EDDAV:  cpu time   21.7228: real time   21.7837
       DOS:  cpu time    0.0008: real time    0.0008
    CHARGE:  cpu time   10.2204: real time   10.2487
    MIXING:  cpu time    0.8263: real time    0.8283
    --------------------------------------------
      LOOP:  cpu time   50.3463: real time   50.4829

 eigenvalue-minimisations  :    72
 total energy-change (2. order) :-0.2147531E-04  (-0.1160176E-07)
 number of electron      30.0000000 magnetization 
 augmentation part        0.1203331 magnetization 

 Broyden mixing:
  rms(total) = 0.20584E-04    rms(broyden)= 0.20584E-04
  rms(prec ) = 0.24913E-04
  weight for this iteration     100.00

 eigenvalues of (default mixing * dielectric matrix)
  average eigenvalue GAMMA=   2.4040
  9.1382  6.6470  4.8200  3.3335  2.5511  2.2077  1.9010  1.9010  1.3268  1.3268
  1.1555  1.1555  1.0393  1.0393  0.9412  0.9412  0.9236  0.9236

 Free energy of the ion-electron system (eV)
  ---------------------------------------------------
  alpha Z        PSCENC =         0.06577044
  Ewald energy   TEWEN  =      2286.95628960
  -Hartree energ DENC   =     -3052.52884185
  -exchange      EXHF   =         0.00000000
  -V(xc)+E(xc)   XCENC  =        62.65974665
  PAW double counting   =       949.28440795     -917.96892578
  entropy T*S    EENTRO =        -0.00000000
  eigenvalues    EBANDS =      -362.42286510
  atomic energy  EATOM  =       957.86343653
  Solvation  Ediel_sol  =         0.00000000
  ---------------------------------------------------
  free energy    TOTEN  =       -76.09098156 eV

  energy without entropy =      -76.09098156  energy(sigma->0) =      -76.09098156


--------------------------------------------------------------------------------------------------------




----------------------------------------- Iteration    1(  24)  ---------------------------------------


    POTLOK:  cpu time   17.4471: real time   17.4897
    SETDIJ:  cpu time    0.1423: real time    0.1427
     EDDAV:  cpu time   19.8333: real time   19.8895
       DOS:  cpu time    0.0006: real time    0.0006
    CHARGE:  cpu time   10.2252: real time   10.2539
    MIXING:  cpu time    0.8585: real time    0.8606
    --------------------------------------------
      LOOP:  cpu time   48.5097: real time   48.6421

 eigenvalue-minimisations  :    64
 total energy-change (2. order) :-0.1165865E-04  (-0.3569166E-08)
 number of electron      30.0000000 magnetization 
 augmentation part        0.1203335 magnetization 

 Broyden mixing:
  rms(total) = 0.12773E-04    rms(broyden)= 0.12773E-04
  rms(prec ) = 0.15323E-04
  weight for this iteration     100.00

 eigenvalues of (default mixing * dielectric matrix)
  average eigenvalue GAMMA=   2.4434
  9.3272  6.9326  5.3003  3.7468  2.8314  2.4999  2.0961  1.9250  1.3265  1.3265
  1.2466  1.1297  1.1297  0.9543  0.9543  0.9877  0.9500  0.9500  0.8103

 Free energy of the ion-electron system (eV)
  ---------------------------------------------------
  alpha Z        PSCENC =         0.06577044
  Ewald energy   TEWEN  =      2286.95628960
  -Hartree energ DENC   =     -3052.53021518
  -exchange      EXHF   =         0.00000000
  -V(xc)+E(xc)   XCENC  =        62.65974657
  PAW double counting   =       949.28419985     -917.96872415
  entropy T*S    EENTRO =        -0.00000000
  eigenvalues    EBANDS =      -362.42149688
  atomic energy  EATOM  =       957.86343653
  Solvation  Ediel_sol  =         0.00000000
  ---------------------------------------------------
  free energy    TOTEN  =       -76.09099322 eV

  energy without entropy =      -76.09099322  energy(sigma->0) =      -76.09099322


--------------------------------------------------------------------------------------------------------




----------------------------------------- Iteration    1(  25)  ---------------------------------------


    POTLOK:  cpu time   17.4599: real time   17.5025
    SETDIJ:  cpu time    0.1418: real time    0.1421
     EDDAV:  cpu time   19.8256: real time   19.8817
       DOS:  cpu time    0.0005: real time    0.0005
    CHARGE:  cpu time   10.2323: real time   10.2608
    MIXING:  cpu time    0.8990: real time    0.9012
    --------------------------------------------
      LOOP:  cpu time   48.5617: real time   48.6938

 eigenvalue-minimisations  :    64
 total energy-change (2. order) :-0.5787362E-05  (-0.3267916E-08)
 number of electron      30.0000000 magnetization 
 augmentation part        0.1203346 magnetization 

 Broyden mixing:
  rms(total) = 0.10202E-04    rms(broyden)= 0.10202E-04
  rms(prec ) = 0.11219E-04
  weight for this iteration     100.00

 eigenvalues of (default mixing * dielectric matrix)
  average eigenvalue GAMMA=   2.4219
  9.3661  7.0890  5.4130  3.9566  2.8983  2.4166  2.0667  2.0667  1.3267  1.3267
  1.3244  1.1805  1.1805  1.1982  1.0751  0.9419  0.9419  0.9503  0.8747  0.8442

 Free energy of the ion-electron system (eV)
  ---------------------------------------------------
  alpha Z        PSCENC =         0.06577044
  Ewald energy   TEWEN  =      2286.95628960
  -Hartree energ DENC   =     -3052.53182156
  -exchange      EXHF   =         0.00000000
  -V(xc)+E(xc)   XCENC  =        62.65975651
  PAW double counting   =       949.28824100     -917.97277680
  entropy T*S    EENTRO =        -0.00000000
  eigenvalues    EBANDS =      -362.41989473
  atomic energy  EATOM  =       957.86343653
  Solvation  Ediel_sol  =         0.00000000
  ---------------------------------------------------
  free energy    TOTEN  =       -76.09099901 eV

  energy without entropy =      -76.09099901  energy(sigma->0) =      -76.09099901


--------------------------------------------------------------------------------------------------------




----------------------------------------- Iteration    1(  26)  ---------------------------------------


    POTLOK:  cpu time   17.4738: real time   17.5164
    SETDIJ:  cpu time    0.1429: real time    0.1433
     EDDAV:  cpu time   19.8295: real time   19.8859
       DOS:  cpu time    0.0010: real time    0.0010
    CHARGE:  cpu time   10.2409: real time   10.2695
    MIXING:  cpu time    0.9287: real time    0.9310
    --------------------------------------------
      LOOP:  cpu time   48.6196: real time   48.7518

 eigenvalue-minimisations  :    64
 total energy-change (2. order) :-0.2304201E-05  (-0.1796707E-08)
 number of electron      30.0000000 magnetization 
 augmentation part        0.1203350 magnetization 

 Broyden mixing:
  rms(total) = 0.77453E-05    rms(broyden)= 0.77453E-05
  rms(prec ) = 0.83920E-05
  weight for this iteration     100.00

 eigenvalues of (default mixing * dielectric matrix)
  average eigenvalue GAMMA=   2.4413
  9.4101  7.3355  5.6089  4.2761  3.0584  2.4259  2.3856  2.0952  1.7843  1.3266
  1.3266  1.3608  1.1842  1.1842  0.9515  0.9515  1.0197  1.0197  0.9311  0.8927
  0.7396

 Free energy of the ion-electron system (eV)
  ---------------------------------------------------
  alpha Z        PSCENC =         0.06577044
  Ewald energy   TEWEN  =      2286.95628960
  -Hartree energ DENC   =     -3052.53178774
  -exchange      EXHF   =         0.00000000
  -V(xc)+E(xc)   XCENC  =        62.65975602
  PAW double counting   =       949.29792072     -917.98246249
  entropy T*S    EENTRO =        -0.00000000
  eigenvalues    EBANDS =      -362.41992439
  atomic energy  EATOM  =       957.86343653
  Solvation  Ediel_sol  =         0.00000000
  ---------------------------------------------------
  free energy    TOTEN  =       -76.09100131 eV

  energy without entropy =      -76.09100131  energy(sigma->0) =      -76.09100131


--------------------------------------------------------------------------------------------------------




----------------------------------------- Iteration    1(  27)  ---------------------------------------


    POTLOK:  cpu time   17.4552: real time   17.4977
    SETDIJ:  cpu time    0.1405: real time    0.1409
     EDDAV:  cpu time   19.8309: real time   19.8874
       DOS:  cpu time    0.0010: real time    0.0010
    CHARGE:  cpu time   10.2392: real time   10.2677
    MIXING:  cpu time    0.9711: real time    0.9735
    --------------------------------------------
      LOOP:  cpu time   48.6405: real time   48.7733

 eigenvalue-minimisations  :    64
 total energy-change (2. order) :-0.1507682E-05  (-0.1810223E-08)
 number of electron      30.0000000 magnetization 
 augmentation part        0.1203367 magnetization 

 Broyden mixing:
  rms(total) = 0.44322E-05    rms(broyden)= 0.44322E-05
  rms(prec ) = 0.47496E-05
  weight for this iteration     100.00

 eigenvalues of (default mixing * dielectric matrix)
  average eigenvalue GAMMA=   2.4421
  9.4372  7.5319  5.7320  4.5660  3.2316  2.7162  2.3630  2.1063  2.1063  1.3266
  1.3266  1.2326  1.2326  1.1778  1.1778  0.9690  0.9690  0.9557  0.9557  0.9497
  0.9497  0.7142

 Free energy of the ion-electron system (eV)
  ---------------------------------------------------
  alpha Z        PSCENC =         0.06577044
  Ewald energy   TEWEN  =      2286.95628960
  -Hartree energ DENC   =     -3052.53128598
  -exchange      EXHF   =         0.00000000
  -V(xc)+E(xc)   XCENC  =        62.65974947
  PAW double counting   =       949.29297804     -917.97751338
  entropy T*S    EENTRO =        -0.00000000
  eigenvalues    EBANDS =      -362.42042754
  atomic energy  EATOM  =       957.86343653
  Solvation  Ediel_sol  =         0.00000000
  ---------------------------------------------------
  free energy    TOTEN  =       -76.09100282 eV

  energy without entropy =      -76.09100282  energy(sigma->0) =      -76.09100282


--------------------------------------------------------------------------------------------------------




----------------------------------------- Iteration    1(  28)  ---------------------------------------


    POTLOK:  cpu time   17.4451: real time   17.4876
    SETDIJ:  cpu time    0.1404: real time    0.1408
     EDDAV:  cpu time   12.2863: real time   12.3209
       DOS:  cpu time    0.0004: real time    0.0004
    CHARGE:  cpu time   10.2447: real time   10.2731
    MIXING:  cpu time    1.0064: real time    1.0089
    --------------------------------------------
      LOOP:  cpu time   41.1261: real time   41.2369

 eigenvalue-minimisations  :    32
 total energy-change (2. order) :-0.6042123E-06  (-0.1348631E-08)
 number of electron      30.0000000 magnetization 
 augmentation part        0.1203372 magnetization 

 Broyden mixing:
  rms(total) = 0.29802E-05    rms(broyden)= 0.29802E-05
  rms(prec ) = 0.31558E-05
  weight for this iteration     100.00

 eigenvalues of (default mixing * dielectric matrix)
  average eigenvalue GAMMA=   2.4443
  9.4909  7.7246  6.0211  4.7529  3.5590  2.7483  2.3356  2.3356  1.9147  1.3266
  1.3266  1.4369  1.4369  1.1826  1.1826  1.0430  1.0430  0.9475  0.9475  0.9357
  0.9275  0.9275  0.6727

 Free energy of the ion-electron system (eV)
  ---------------------------------------------------
  alpha Z        PSCENC =         0.06577044
  Ewald energy   TEWEN  =      2286.95628960
  -Hartree energ DENC   =     -3052.53138632
  -exchange      EXHF   =         0.00000000
  -V(xc)+E(xc)   XCENC  =        62.65974615
  PAW double counting   =       949.30091318     -917.98545287
  entropy T*S    EENTRO =        -0.00000000
  eigenvalues    EBANDS =      -362.42032013
  atomic energy  EATOM  =       957.86343653
  Solvation  Ediel_sol  =         0.00000000
  ---------------------------------------------------
  free energy    TOTEN  =       -76.09100343 eV

  energy without entropy =      -76.09100343  energy(sigma->0) =      -76.09100343


--------------------------------------------------------------------------------------------------------




----------------------------------------- Iteration    1(  29)  ---------------------------------------


    POTLOK:  cpu time   17.3572: real time   17.3995
    SETDIJ:  cpu time    0.1403: real time    0.1406
     EDDAV:  cpu time   17.9510: real time   18.0015
       DOS:  cpu time    0.0007: real time    0.0007
    CHARGE:  cpu time   10.2363: real time   10.2647
    MIXING:  cpu time    1.0435: real time    1.0460
    --------------------------------------------
      LOOP:  cpu time   46.7316: real time   46.8583

 eigenvalue-minimisations  :    56
 total energy-change (2. order) :-0.2684403E-06  (-0.1155351E-08)
 number of electron      30.0000000 magnetization 
 augmentation part        0.1203383 magnetization 

 Broyden mixing:
  rms(total) = 0.14759E-05    rms(broyden)= 0.14759E-05
  rms(prec ) = 0.16046E-05
  weight for this iteration     100.00

 eigenvalues of (default mixing * dielectric matrix)
  average eigenvalue GAMMA=   2.3951
  9.4973  7.7872  6.0525  4.8379  3.6128  2.7362  2.4480  2.3199  1.8430  1.3266
  1.3266  1.3977  1.3977  1.2327  1.2327  1.0707  1.0707  0.9525  0.9525  0.9041
  0.9314  0.9485  0.9485  0.6548

 Free energy of the ion-electron system (eV)
  ---------------------------------------------------
  alpha Z        PSCENC =         0.06577044
  Ewald energy   TEWEN  =      2286.95628960
  -Hartree energ DENC   =     -3052.53164444
  -exchange      EXHF   =         0.00000000
  -V(xc)+E(xc)   XCENC  =        62.65974748
  PAW double counting   =       949.31084056     -917.99538627
  entropy T*S    EENTRO =        -0.00000000
  eigenvalues    EBANDS =      -362.42005758
  atomic energy  EATOM  =       957.86343653
  Solvation  Ediel_sol  =         0.00000000
  ---------------------------------------------------
  free energy    TOTEN  =       -76.09100369 eV

  energy without entropy =      -76.09100369  energy(sigma->0) =      -76.09100369


--------------------------------------------------------------------------------------------------------




----------------------------------------- Iteration    1(  30)  ---------------------------------------


    POTLOK:  cpu time   17.3777: real time   17.4200
    SETDIJ:  cpu time    0.1413: real time    0.1417
     EDDAV:  cpu time   16.0721: real time   16.1169
       DOS:  cpu time    0.0007: real time    0.0007
    CHARGE:  cpu time   10.2300: real time   10.2586
    MIXING:  cpu time    1.0907: real time    1.0934
    --------------------------------------------
      LOOP:  cpu time   44.9152: real time   45.0366

 eigenvalue-minimisations  :    48
 total energy-change (2. order) :-0.1021788E-06  (-0.9122925E-09)
 number of electron      30.0000000 magnetization 
 augmentation part        0.1203387 magnetization 

 Broyden mixing:
  rms(total) = 0.10988E-05    rms(broyden)= 0.10988E-05
  rms(prec ) = 0.11918E-05
  weight for this iteration     100.00

 eigenvalues of (default mixing * dielectric matrix)
  average eigenvalue GAMMA=   2.4361
  9.5485  7.9276  6.2900  5.0241  3.9145  2.8332  2.8332  2.4608  2.0000  2.0000
  1.3267  1.3267  1.3594  1.3594  1.1625  1.1625  1.1295  0.9931  0.9931  0.9753
  0.9234  0.9234  0.9030  0.9030  0.6303

 Free energy of the ion-electron system (eV)
  ---------------------------------------------------
  alpha Z        PSCENC =         0.06577044
  Ewald energy   TEWEN  =      2286.95628960
  -Hartree energ DENC   =     -3052.53162025
  -exchange      EXHF   =         0.00000000
  -V(xc)+E(xc)   XCENC  =        62.65974609
  PAW double counting   =       949.31362132     -917.99816825
  entropy T*S    EENTRO =        -0.00000000
  eigenvalues    EBANDS =      -362.42007927
  atomic energy  EATOM  =       957.86343653
  Solvation  Ediel_sol  =         0.00000000
  ---------------------------------------------------
  free energy    TOTEN  =       -76.09100380 eV

  energy without entropy =      -76.09100380  energy(sigma->0) =      -76.09100380


--------------------------------------------------------------------------------------------------------




----------------------------------------- Iteration    1(  31)  ---------------------------------------


    POTLOK:  cpu time   17.4414: real time   17.4838
    SETDIJ:  cpu time    0.1405: real time    0.1409
     EDDAV:  cpu time   16.0504: real time   16.0958
       DOS:  cpu time    0.0006: real time    0.0006
    CHARGE:  cpu time   10.2401: real time   10.2686
    MIXING:  cpu time    1.1284: real time    1.1311
    --------------------------------------------
      LOOP:  cpu time   45.0040: real time   45.1259

 eigenvalue-minimisations  :    48
 total energy-change (2. order) :-0.1471592E-06  (-0.5635457E-09)
 number of electron      30.0000000 magnetization 
 augmentation part        0.1203398 magnetization 

 Broyden mixing:
  rms(total) = 0.12870E-05    rms(broyden)= 0.12870E-05
  rms(prec ) = 0.13147E-05
  weight for this iteration     100.00

 eigenvalues of (default mixing * dielectric matrix)
  average eigenvalue GAMMA=   2.4031
  9.5637  8.0190  6.4749  5.0853  4.2119  2.9086  2.9086  2.4310  2.0188  2.0188
  1.3269  1.3269  1.2677  1.2677  1.1013  1.1013  1.1723  1.1107  1.1107  0.9401
  0.9401  0.9872  0.9195  0.9195  0.7572  0.5899

 Free energy of the ion-electron system (eV)
  ---------------------------------------------------
  alpha Z        PSCENC =         0.06577044
  Ewald energy   TEWEN  =      2286.95628960
  -Hartree energ DENC   =     -3052.53164584
  -exchange      EXHF   =         0.00000000
  -V(xc)+E(xc)   XCENC  =        62.65974427
  PAW double counting   =       949.31967426     -918.00422432
  entropy T*S    EENTRO =        -0.00000000
  eigenvalues    EBANDS =      -362.42004888
  atomic energy  EATOM  =       957.86343653
  Solvation  Ediel_sol  =         0.00000000
  ---------------------------------------------------
  free energy    TOTEN  =       -76.09100394 eV

  energy without entropy =      -76.09100394  energy(sigma->0) =      -76.09100394


--------------------------------------------------------------------------------------------------------




----------------------------------------- Iteration    1(  32)  ---------------------------------------


    POTLOK:  cpu time   17.4577: real time   17.5003
    SETDIJ:  cpu time    0.1409: real time    0.1413
     EDDAV:  cpu time   16.0682: real time   16.1143
       DOS:  cpu time    0.0007: real time    0.0007
    --------------------------------------------
      LOOP:  cpu time   33.6700: real time   33.7616

 eigenvalue-minimisations  :    48
 total energy-change (2. order) :-0.2536740E-07  (-0.4255511E-09)
 number of electron      30.0000000 magnetization 
 augmentation part        0.1203398 magnetization 

 Free energy of the ion-electron system (eV)
  ---------------------------------------------------
  alpha Z        PSCENC =         0.06577044
  Ewald energy   TEWEN  =      2286.95628960
  -Hartree energ DENC   =     -3052.53169824
  -exchange      EXHF   =         0.00000000
  -V(xc)+E(xc)   XCENC  =        62.65974543
  PAW double counting   =       949.32082458     -918.00537544
  entropy T*S    EENTRO =        -0.00000000
  eigenvalues    EBANDS =      -362.41999685
  atomic energy  EATOM  =       957.86343653
  Solvation  Ediel_sol  =         0.00000000
  ---------------------------------------------------
  free energy    TOTEN  =       -76.09100397 eV

  energy without entropy =      -76.09100397  energy(sigma->0) =      -76.09100397


--------------------------------------------------------------------------------------------------------




 average (electrostatic) potential at core
  the test charge radii are     0.5412  0.5531
  (the norm of the test charge is              1.0000)
       1-113.3937       2-113.3951       3-113.3951       4-113.3976       5-113.3982
       6-113.3976       7 -41.0489       8 -41.0494       9 -41.0503      10 -41.0494
      11 -41.0489      12 -41.0551
 
 
 
 E-fermi :  -6.2223     XC(G=0):  -0.0475     alpha+bet : -0.0186


 k-point     1 :       0.0000    0.0000    0.0000
  band No.  band energies     occupation 
      1     -21.2200      2.00000
      2     -18.4319      2.00000
      3     -18.4272      2.00000
      4     -14.8181      2.00000
      5     -14.8161      2.00000
      6     -12.8994      2.00000
      7     -11.1883      2.00000
      8     -10.8743      2.00000
      9     -10.2123      2.00000
     10     -10.2061      2.00000
     11      -9.0631      2.00000
     12      -8.2084      2.00000
     13      -8.2023      2.00000
     14      -6.3227      2.00000
     15      -6.3197      2.00000
     16      -1.1962      0.00000
     17      -1.1957      0.00000
     18      -0.4991      0.00000
     19      -0.0299      0.00000
     20      -0.0294      0.00000
     21       0.0150      0.00000
     22       0.1144      0.00000
     23       0.1242      0.00000
     24       0.1265      0.00000


--------------------------------------------------------------------------------------------------------


 soft charge-density along one line, spin component           1
         0         1         2         3         4         5         6         7         8         9
 total charge-density along one line
 
 pseudopotential strength for first ion, spin component:           1
 10.601  -0.055   0.063  -0.000  -0.000   0.000   0.002  -0.000
 -0.055  -0.072   0.661   0.000  -0.000  -0.000   0.001   0.000
  0.063   0.661   0.207  -0.000  -0.000   0.000   0.000   0.000
 -0.000   0.000  -0.000  -3.669   0.000  -0.004   0.095  -0.000
 -0.000  -0.000  -0.000   0.000  -3.665   0.000  -0.000   0.097
  0.000  -0.000   0.000  -0.004   0.000  -3.671  -0.003  -0.000
  0.002   0.001   0.000   0.095  -0.000  -0.003  26.403   0.000
 -0.000   0.000   0.000  -0.000   0.097  -0.000   0.000  26.411
 -0.001  -0.001  -0.000  -0.003  -0.000   0.093  -0.008   0.000
 -0.000  -0.000  -0.000  -0.049   0.000  -0.001 -17.736  -0.000
  0.000  -0.000  -0.000   0.000  -0.048   0.000  -0.000 -17.738
  0.000   0.000   0.000  -0.001   0.000  -0.050   0.002  -0.000
 -0.007  -0.002  -0.000   0.001   0.000   0.000   0.004   0.000
 -0.000  -0.000  -0.000   0.000   0.002   0.000  -0.000   0.009
  0.005   0.001   0.000   0.001   0.000  -0.000   0.007  -0.000
 -0.000  -0.000  -0.000   0.000  -0.001   0.000   0.000  -0.007
 -0.002  -0.001  -0.000  -0.001   0.000  -0.002   0.000   0.000
  0.004   0.002   0.000  -0.001  -0.000   0.000  -0.002  -0.000
  0.000   0.000   0.000   0.000  -0.003  -0.000   0.000  -0.007
 -0.003  -0.001  -0.000  -0.002   0.000   0.001  -0.004   0.000
  0.000   0.000   0.000  -0.000   0.002   0.000  -0.000   0.005
  0.001   0.001   0.000   0.000  -0.000   0.001   0.001  -0.000
 total augmentation occupancy for first ion, spin component:           1
  1.479   0.014   0.311   0.014   0.000  -0.010   0.003   0.000  -0.002   0.001   0.000  -0.001  -0.022   0.000   0.016   0.000
  0.014   0.001   0.004   0.001   0.000  -0.001   0.000   0.000  -0.000   0.000   0.000  -0.000  -0.000   0.000   0.000   0.000
  0.311   0.004   0.067   0.016   0.000  -0.011   0.001   0.000  -0.001   0.001   0.000  -0.000  -0.004   0.000   0.004   0.000
  0.014   0.001   0.016   1.082   0.000  -0.141   0.037   0.000  -0.012   0.018   0.000  -0.006   0.015   0.000   0.027   0.000
  0.000   0.000   0.000   0.000   1.222   0.000   0.000   0.050   0.000   0.000   0.024   0.000   0.000   0.035   0.000  -0.025
 -0.010  -0.001  -0.011  -0.141   0.000   0.990  -0.012   0.000   0.030  -0.006   0.000   0.014  -0.006   0.000  -0.020   0.000
  0.003   0.000   0.001   0.037   0.000  -0.012   0.001   0.000  -0.001   0.001   0.000  -0.000   0.000   0.000   0.001   0.000
  0.000   0.000   0.000   0.000   0.050   0.000   0.000   0.002   0.000   0.000   0.001   0.000   0.000   0.001   0.000  -0.001
 -0.002  -0.000  -0.001  -0.012   0.000   0.030  -0.001   0.000   0.001  -0.000   0.000   0.000  -0.000   0.000  -0.001   0.000
  0.001   0.000   0.001   0.018   0.000  -0.006   0.001   0.000  -0.000   0.000   0.000  -0.000   0.000   0.000   0.000   0.000
  0.000   0.000   0.000   0.000   0.024   0.000   0.000   0.001   0.000   0.000   0.001   0.000   0.000   0.001   0.000  -0.001
 -0.001  -0.000  -0.000  -0.006   0.000   0.014  -0.000   0.000   0.000  -0.000   0.000   0.000  -0.000   0.000  -0.000   0.000
 -0.022  -0.000  -0.004   0.015   0.000  -0.006   0.000   0.000  -0.000   0.000   0.000  -0.000   0.001   0.000   0.001   0.000
  0.000   0.000   0.000   0.000   0.035   0.000   0.000   0.001   0.000   0.000   0.001   0.000   0.000   0.002   0.000  -0.001
  0.016   0.000   0.004   0.027   0.000  -0.020   0.001   0.000  -0.001   0.000   0.000  -0.000   0.001   0.000   0.002   0.000
  0.000   0.000   0.000   0.000  -0.025   0.000   0.000  -0.001   0.000   0.000  -0.001   0.000   0.000  -0.001   0.000   0.001
 -0.007  -0.000  -0.001  -0.003   0.000  -0.012  -0.000   0.000  -0.000  -0.000   0.000  -0.000   0.000   0.000   0.000   0.000
  0.018   0.000   0.004  -0.012   0.000   0.005  -0.000   0.000   0.000  -0.000   0.000   0.000  -0.001   0.000  -0.000   0.000
  0.000   0.000   0.000   0.000  -0.028   0.000   0.000  -0.001   0.000   0.000  -0.001   0.000   0.000  -0.001   0.000   0.000
 -0.014  -0.000  -0.003  -0.021   0.000   0.015  -0.001   0.000   0.001  -0.000   0.000   0.000  -0.000   0.000  -0.001   0.000
  0.000   0.000   0.000   0.000   0.020   0.000   0.000   0.001   0.000   0.000   0.000   0.000   0.000   0.000   0.000  -0.001
  0.006   0.000   0.001   0.002   0.000   0.009   0.000   0.000   0.000   0.000   0.000   0.000  -0.000   0.000  -0.000   0.000


------------------------ aborting loop because EDIFF is reached ----------------------------------------


    CHARGE:  cpu time   10.2433: real time   10.2720
    FORLOC:  cpu time    1.9544: real time    1.9592
    FORNL :  cpu time    4.4174: real time    4.4281
    STRESS:  cpu time   14.3267: real time   14.3617
    FORCOR:  cpu time   17.2261: real time   17.2682
    FORHAR:  cpu time    5.7624: real time    5.7764
    MIXING:  cpu time    1.1666: real time    1.1694
    OFIELD:  cpu time    0.0000: real time    0.0000

  FORCE on cell =-STRESS in cart. coord.  units (eV):
  Direction    XX          YY          ZZ          XY          YZ          ZX
  --------------------------------------------------------------------------------------
  Alpha Z     0.06577     0.06577     0.06577
  Ewald     303.64365   752.20909  1231.10278  -664.90879    -0.00000    -0.00000
  Hartree   752.70728  1011.90917  1287.91515  -382.56621     0.00000     0.00000
  E(xc)    -117.03913  -116.15766  -115.21094    -1.31856    -0.00000     0.00000
  Local   -1447.69355 -2138.77743 -2875.64841  1022.39770    -0.00000     0.00000
  n-local    -1.98937    -2.48800    -3.05873     0.76402     0.00000    -0.00000
  augment     1.78316     1.68453     1.57928     0.14744     0.00000     0.00000
  Kinetic   509.05589   492.57936   474.92254    24.73778    -0.00000     0.00000
  Fock        0.00000     0.00000     0.00000     0.00000     0.00000     0.00000
  -------------------------------------------------------------------------------------
  Total       0.53369     1.02483     1.66744    -0.74661     0.00000     0.00000
  in kB       0.01994     0.03830     0.06231    -0.02790     0.00000     0.00000
  external pressure =        0.04 kB  Pullay stress =        0.00 kB


 VOLUME and BASIS-vectors are now :
 -----------------------------------------------------------------------------
  energy-cutoff  :     2000.00
  volume of cell :    42875.00
      direct lattice vectors                 reciprocal lattice vectors
    35.000000000  0.000000000  0.000000000     0.028571429  0.000000000  0.000000000
     0.000000000 35.000000000  0.000000000     0.000000000  0.028571429  0.000000000
     0.000000000  0.000000000 35.000000000     0.000000000  0.000000000  0.028571429

  length of vectors
    35.000000000 35.000000000 35.000000000     0.028571429  0.028571429  0.028571429


 FORCES acting on ions
    electron-ion (+dipol)            ewald-force                    non-local-force                 convergence-correction
 -----------------------------------------------------------------------------------------------
   -.105E+03 0.148E+03 0.366E-06   0.105E+03 -.147E+03 -.178E-14   0.760E-01 -.915E-01 0.000E+00   -.527E-05 0.583E-05 -.219E-13
   -.523E+02 0.737E+02 -.157E+03   0.522E+02 -.736E+02 0.157E+03   0.131E-01 -.549E-01 0.132E+00   -.410E-05 0.463E-05 -.649E-05
   -.523E+02 0.737E+02 0.157E+03   0.522E+02 -.736E+02 -.157E+03   0.131E-01 -.549E-01 -.132E+00   -.410E-05 0.463E-05 0.649E-05
   0.529E+02 -.734E+02 -.157E+03   -.528E+02 0.733E+02 0.157E+03   -.404E-01 0.458E-01 0.100E+00   0.245E-05 -.397E-05 -.734E-05
   0.105E+03 -.147E+03 -.507E-06   -.105E+03 0.147E+03 -.289E-13   -.953E-01 0.750E-01 0.000E+00   0.525E-05 -.749E-05 -.299E-13
   0.529E+02 -.734E+02 0.157E+03   -.528E+02 0.733E+02 -.157E+03   -.404E-01 0.458E-01 -.100E+00   0.245E-05 -.397E-05 0.734E-05
   -.239E+02 0.328E+02 0.702E+02   0.258E+02 -.353E+02 -.756E+02   -.174E+01 0.237E+01 0.508E+01   -.646E-06 0.748E-06 0.174E-05
   0.237E+02 -.329E+02 0.702E+02   -.255E+02 0.354E+02 -.756E+02   0.171E+01 -.238E+01 0.508E+01   0.568E-06 -.875E-06 0.210E-05
   0.473E+02 -.658E+02 0.159E-10   -.509E+02 0.709E+02 0.429E-12   0.343E+01 -.477E+01 0.000E+00   0.945E-06 -.137E-05 -.490E-14
   0.237E+02 -.329E+02 -.702E+02   -.255E+02 0.354E+02 0.756E+02   0.171E+01 -.238E+01 -.508E+01   0.568E-06 -.875E-06 -.210E-05
   -.239E+02 0.328E+02 -.702E+02   0.258E+02 -.353E+02 0.756E+02   -.174E+01 0.237E+01 -.508E+01   -.646E-06 0.748E-06 -.174E-05
   -.480E+02 0.654E+02 0.107E-10   0.516E+02 -.704E+02 0.444E-15   -.349E+01 0.473E+01 0.000E+00   -.111E-05 0.128E-05 -.238E-14
 -----------------------------------------------------------------------------------------------
   0.198E+00 0.984E-01 -.201E-06   -.497E-13 -.142E-13 0.289E-13   -.198E+00 -.984E-01 0.888E-15   -.365E-05 -.688E-06 -.102E-12
 
 
 POSITION                                       TOTAL-FORCE (eV/Angst)
 -----------------------------------------------------------------------------------
     33.95218     33.57833      0.00000        -0.064536      0.157758      0.000000
     33.54550     34.14455      1.20621        -0.038506      0.073067     -0.107144
     33.54550     34.14455     33.79379        -0.038506      0.073067      0.107144
     32.73320      0.27716      1.20695         0.041669     -0.060388     -0.141045
     32.32852      0.84502      0.00000         0.072201     -0.151127      0.000000
     32.73320      0.27716     33.79305         0.041669     -0.060388      0.141045
     33.86615     33.70794     32.85769         0.078946     -0.125820     -0.270310
     32.41751      0.71631     32.85620        -0.083085      0.121573     -0.260275
     31.69696      1.72327      0.00000        -0.169178      0.246408      0.000000
     32.41751      0.71631      2.14380        -0.083085      0.121573      0.260275
     33.86615     33.70794      2.14231         0.078946     -0.125820      0.270310
     34.59398     32.70809      0.00000         0.163464     -0.269905      0.000000
 -----------------------------------------------------------------------------------
    total drift:                                0.000027     -0.000045     -0.000000


--------------------------------------------------------------------------------------------------------



  FREE ENERGIE OF THE ION-ELECTRON SYSTEM (eV)
  ---------------------------------------------------
  free  energy   TOTEN  =       -76.09100397 eV

  energy  without entropy=      -76.09100397  energy(sigma->0) =      -76.09100397
 


--------------------------------------------------------------------------------------------------------


    POTLOK:  cpu time   17.7089: real time   17.7521


--------------------------------------------------------------------------------------------------------


 writing wavefunctions
     LOOP+:  cpu time 2267.1103: real time 2273.2365
    4ORBIT:  cpu time    0.0000: real time    0.0000

 total amount of memory used by VASP on root node  4407419. kBytes
========================================================================

   base      :      30000. kBytes
   nonl-proj :     296064. kBytes
   fftplans  :    1475802. kBytes
   grid      :    2553282. kBytes
   one-center:         23. kBytes
   wavefun   :      52248. kBytes
 
  
  
 General timing and accounting informations for this job:
 ========================================================
  
                  Total CPU time used (sec):     3207.391
                            User time (sec):     2904.417
                          System time (sec):      302.974
                         Elapsed time (sec):     3216.242
  
                   Maximum memory used (kb):     7439936.
                   Average memory used (kb):           0.
  
                          Minor page faults:       343335
                          Major page faults:            6
                 Voluntary context switches:        39634
 
 PROFILE, used timers:      14
 =============================
 
 index                 routine                    time                            calls level
----------------------------------------------------------------------------------------------
    1    total_time                         3216.243221                                1   1
    2      w1_copy                               4.668957                           2328   2
    3      fftwav_mpi                          223.603616                            892   2
    4      fftext_mpi                            1.001531                              6   2
    5      overl                                 0.002226                           1357   2
    6      orth1                                 6.640612                           1162   2
    7      lincom                                0.353942                             33   2
    8      eccp                                  7.434802                            192   2
    9      hamiltmu                            343.216875                            387   2
   10        vhamil                               47.070729                          774   3
   11        overl1                                0.001458                          774   3
   12        kinhamil                            122.794541                          774   3
   13          fftext_mpi                          121.311571                        774   4
   14      pdssyex_zheevx                        0.062967                             32   2
 
 Flat profile
 ============
 
             routine name                   CPU           calls
 ---------------------------------------------------------------
 total_time                           2629.257693           1
 fftwav_mpi                            223.603616         892
 hamiltmu                              173.350147         387
 fftext_mpi                            122.313102         780
 vhamil                                 47.070729         774
 eccp                                    7.434802         192
 orth1                                   6.640612        1162
 w1_copy                                 4.668957        2328
 kinhamil                                1.482970         774
 lincom                                  0.353942          33
 pdssyex_zheevx                          0.062967          32
 overl                                   0.002226        1357
 overl1                                  0.001458         774
 ---------------------------------------------------------------
  summed up times    3216.24322104454     
 
Profiling took   0.008550  0.004817  0.003304  0.003296 seconds
Profiling took   0.004569 seconds
