 vasp.5.4.1 24Jun15 (build Jan 02 2020 16:21:29) gamma-only                     
  
 executed on           IFC15_impi date 2020.04.23  21:15:03
 running on   32 total cores
 distrk:  each k-point on   32 cores,    1 groups
 distr:  one band on NCORES_PER_BAND=   8 cores,    4 groups


--------------------------------------------------------------------------------------------------------


 INCAR:
 POTCAR:    PAW_PBE C_h_GW 23May2013              
 POTCAR:    PAW_PBE H_h_GW 21Apr2008              
 POTCAR:    PAW_PBE C_h_GW 23May2013              
   VRHFIN =C: s2p2                                                              
   LEXCH  = PE                                                                  
   EATOM  =   147.1560 eV,   10.8157 Ry                                         
                                                                                
   TITEL  = PAW_PBE C_h_GW 23May2013                                            
   LULTRA =        F    use ultrasoft PP ?                                      
   IUNSCR =        1    unscreen: 0-lin 1-nonlin 2-no                           
   RPACOR =    0.800    partial core radius                                     
   POMASS =   12.011; ZVAL   =    4.000    mass and valenz                      
   RCORE  =    1.100    outmost cutoff radius                                   
   RWIGS  =    1.200; RWIGS  =    0.635    wigner-seitz radius (au A)           
   ENMAX  =  741.689; ENMIN  =  556.267 eV                                      
   RCLOC  =    0.804    cutoff for local pot                                    
   LCOR   =        T    correct aug charges                                     
   LPAW   =        T    paw PP                                                  
   EAUG   = 1782.225                                                            
   DEXC   =    0.000                                                            
   RMAX   =    1.128    core radius for proj-oper                               
   RAUG   =    1.300    factor for augmentation sphere                          
   RDEP   =    1.162    radius for radial grids                                 
   RDEPT  =    1.000    core radius for aug-charge                              
                                                                                
   Atomic configuration                                                         
    5 entries                                                                   
     n  l   j            E        occ.                                          
     1  0  0.50      -273.3789   2.0000                                         
     2  0  0.50       -13.7508   2.0000                                         
     2  1  0.50        -5.2854   2.0000                                         
     3  2  1.50        -5.4423   0.0000                                         
     4  3  2.50        -5.4423   0.0000                                         
   Description                                                                  
     l       E           TYP  RCUT    TYP  RCUT                                 
     0    -13.7508457     23  1.000                                             
     0     81.6349560     23  1.000                                             
     0    204.0873900     23  1.000                                             
     1     -5.2854382     23  1.100                                             
     1    204.0873900     23  1.100                                             
     1    380.9631280     23  1.100                                             
     2     81.6349560     23  1.100                                             
     2    204.0873900     23  1.100                                             
  local pseudopotential read in
  partial core-charges read in
  partial kinetic energy density read in
  kinetic energy density of atom read in
  atomic valenz-charges read in
  non local Contribution for L=           0  read in
    real space projection operators read in
  non local Contribution for L=           0  read in
    real space projection operators read in
  non local Contribution for L=           0  read in
    real space projection operators read in
  non local Contribution for L=           1  read in
    real space projection operators read in
  non local Contribution for L=           1  read in
    real space projection operators read in
  non local Contribution for L=           1  read in
    real space projection operators read in
  non local Contribution for L=           2  read in
    real space projection operators read in
  non local Contribution for L=           2  read in
    real space projection operators read in
    PAW grid and wavefunctions read in
 
   number of l-projection  operators is LMAX  =           8
   number of lm-projection operators is LMMAX =          22
 
 POTCAR:    PAW_PBE H_h_GW 21Apr2008              
   VRHFIN =H: ultrasoft test                                                    
   LEXCH  = PE                                                                  
   EATOM  =    12.4884 eV,    0.9179 Ry                                         
                                                                                
   TITEL  = PAW_PBE H_h_GW 21Apr2008                                            
   LULTRA =        F    use ultrasoft PP ?                                      
   IUNSCR =        0    unscreen: 0-lin 1-nonlin 2-no                           
   RPACOR =    0.000    partial core radius                                     
   POMASS =    1.000; ZVAL   =    1.000    mass and valenz                      
   RCORE  =    0.800    outmost cutoff radius                                   
   RWIGS  =    1.100; RWIGS  =    0.582    wigner-seitz radius (au A)           
   ENMAX  =  700.000; ENMIN  =  350.000 eV                                      
   RCLOC  =    0.701    cutoff for local pot                                    
   LCOR   =        T    correct aug charges                                     
   LPAW   =        T    paw PP                                                  
   EAUG   = 1000.000                                                            
   RMAX   =    0.819    core radius for proj-oper                               
   RAUG   =    1.000    factor for augmentation sphere                          
   RDEP   =    0.817    radius for radial grids                                 
   RDEPT  =    1.000    core radius for aug-charge                              
                                                                                
   Atomic configuration                                                         
    3 entries                                                                   
     n  l   j            E        occ.                                          
     1  0  0.50        -6.4927   1.0000                                         
     2  1  0.50        -3.4015   0.0000                                         
     3  2  1.50        13.6058   0.0000                                         
   Description                                                                  
     l       E           TYP  RCUT    TYP  RCUT                                 
     0     -6.4927495     23  0.800                                             
     0      6.8029130     23  0.800                                             
     1     -4.0817478     23  0.800                                             
     1    108.8466080     23  0.800                                             
     2     81.6349560     23  0.800                                             
  local pseudopotential read in
  kinetic energy density of atom read in
  atomic valenz-charges read in
  non local Contribution for L=           0  read in
    real space projection operators read in
  non local Contribution for L=           0  read in
    real space projection operators read in
  non local Contribution for L=           1  read in
    real space projection operators read in
  non local Contribution for L=           1  read in
    real space projection operators read in
  non local Contribution for L=           2  read in
    real space projection operators read in
    PAW grid and wavefunctions read in
 
   number of l-projection  operators is LMAX  =           5
   number of lm-projection operators is LMMAX =          13
 
  PAW_PBE C_h_GW 23May2013              :
 energy of atom  1       EATOM= -147.1560
 kinetic energy error for atom=    0.0004 (will be added to EATOM!!)
  PAW_PBE H_h_GW 21Apr2008              :
 energy of atom  2       EATOM=  -12.4884
 kinetic energy error for atom=    0.0001 (will be added to EATOM!!)
 
 
 POSCAR: C H                                     
  positions in cartesian coordinates
  No initial velocities read in
 exchange correlation table for  LEXCH =        8
   RHO(1)=    0.500       N(1)  =     2000
   RHO(2)=  100.500       N(2)  =     4000
 


--------------------------------------------------------------------------------------------------------


 ion  position               nearest neighbor table
   1  0.999  0.044  0.961-   7 1.08   2 1.39   6 1.39
   2  0.964  0.028  0.954-   8 1.08   3 1.39   1 1.39
   3  0.961  0.994  0.934-   9 1.08   2 1.39   4 1.39
   4  0.993  0.975  0.921-  10 1.08   3 1.39   5 1.39
   5  0.029  0.991  0.928-  11 1.08   6 1.39   4 1.39
   6  0.032  0.026  0.948-  12 1.08   5 1.39   1 1.39
   7  0.002  0.070  0.977-   1 1.08
   8  0.938  0.042  0.965-   2 1.08
   9  0.933  0.981  0.929-   3 1.08
  10  0.991  0.949  0.905-   4 1.08
  11  0.055  0.977  0.917-   5 1.08
  12  0.060  0.038  0.953-   6 1.08
 
  LATTYP: Found a simple cubic cell.
 ALAT       =    35.0000000000
  
  Lattice vectors:
  
 A1 = (  35.0000000000,   0.0000000000,   0.0000000000)
 A2 = (   0.0000000000,  35.0000000000,   0.0000000000)
 A3 = (   0.0000000000,   0.0000000000,  35.0000000000)


Analysis of symmetry for initial positions (statically):
=====================================================================
 Subroutine PRICEL returns:
 Original cell was already a primitive cell.
 

 Routine SETGRP: Setting up the symmetry group for a 
 simple cubic supercell.


 Subroutine GETGRP returns: Found  1 space group operations
 (whereof  1 operations were pure point group operations)
 out of a pool of 48 trial point group operations.


The static configuration has the point symmetry C_1 .


Analysis of symmetry for dynamics (positions and initial velocities):
=====================================================================
 Subroutine PRICEL returns:
 Original cell was already a primitive cell.
 

 Routine SETGRP: Setting up the symmetry group for a 
 simple cubic supercell.


 Subroutine GETGRP returns: Found  1 space group operations
 (whereof  1 operations were pure point group operations)
 out of a pool of 48 trial point group operations.


The dynamic configuration has the point symmetry C_1 .
 
 
 KPOINTS: automatic mesh                          

Automatic generation of k-mesh.
Space group operators:
 irot       det(A)        alpha          n_x          n_y          n_z        tau_x        tau_y        tau_z
    1     1.000000     0.000000     1.000000     0.000000     0.000000     0.000000     0.000000     0.000000
 
 Subroutine IBZKPT returns following result:
 ===========================================
 
 Found      1 irreducible k-points:
 
 Following reciprocal coordinates:
            Coordinates               Weight
  0.000000  0.000000  0.000000      1.000000
 
 Following cartesian coordinates:
            Coordinates               Weight
  0.000000  0.000000  0.000000      1.000000
 


--------------------------------------------------------------------------------------------------------




 Dimension of arrays:
   k-points           NKPTS =      1   k-points in BZ     NKDIM =      1   number of bands    NBANDS=     24
   number of dos      NEDOS =    301   number of ions     NIONS =     12
   non local maximal  LDIM  =      8   non local SUM 2l+1 LMDIM =     22
   total plane-waves  NPLWV = ******
   max r-space proj   IRMAX =      1   max aug-charges    IRDMAX=  18497
   dimension x,y,z NGX =   512 NGY =  512 NGZ =  512
   dimension x,y,z NGXF=  1024 NGYF= 1024 NGZF= 1024
   support grid    NGXF=  1024 NGYF= 1024 NGZF= 1024
   ions per type =               6   6
 NGX,Y,Z   is equivalent  to a cutoff of  24.32, 24.32, 24.32 a.u.
 NGXF,Y,Z  is equivalent  to a cutoff of  48.64, 48.64, 48.64 a.u.


 I would recommend the setting:
   dimension x,y,z NGX =   511 NGY =  511 NGZ =  511
 SYSTEM =  C                                       
 POSCAR =  C H                                     

 Startparameter for this run:
   NWRITE =      2    write-flag & timer
   PREC   = acc       normal or accurate (medium, high low for compatibility)
   ISTART =      0    job   : 0-new  1-cont  2-samecut
   ICHARG =      2    charge: 1-file 2-atom 10-const
   ISPIN  =      1    spin polarized calculation?
   LNONCOLLINEAR =      F non collinear calculations
   LSORBIT =      F    spin-orbit coupling
   INIWAV =      1    electr: 0-lowe 1-rand  2-diag
   LASPH  =      T    aspherical Exc in radial PAW
   METAGGA=      F    non-selfconsistent MetaGGA calc.

 Electronic Relaxation 1
   ENCUT  = 2000.0 eV 147.00 Ry   12.12 a.u. 127.63127.63127.63*2*pi/ulx,y,z
   ENINI  = 2000.0     initial cutoff
   ENAUG  = 1782.2 eV  augmentation charge cutoff
   NELM   =     60;   NELMIN=  2; NELMDL= -5     # of ELM steps 
   EDIFF  = 0.1E-06   stopping-criterion for ELM
   LREAL  =      F    real-space projection
   NLSPLINE    = F    spline interpolate recip. space projectors
   LCOMPAT=      F    compatible to vasp.4.4
   GGA_COMPAT  = T    GGA compatible to vasp.4.4-vasp.4.6
   LMAXPAW     = -100 max onsite density
   LMAXMIX     =    2 max onsite mixed and CHGCAR
   VOSKOWN=      0    Vosko Wilk Nusair interpolation
   ROPT   =    0.00000   0.00000
 Ionic relaxation
   EDIFFG = 0.1E-05   stopping-criterion for IOM
   NSW    =      0    number of steps for IOM
   NBLOCK =      1;   KBLOCK =      1    inner block; outer block 
   IBRION =     -1    ionic relax: 0-MD 1-quasi-New 2-CG
   NFREE  =      0    steps in history (QN), initial steepest desc. (CG)
   ISIF   =      2    stress and relaxation
   IWAVPR =     10    prediction:  0-non 1-charg 2-wave 3-comb
   ISYM   =      2    0-nonsym 1-usesym 2-fastsym
   LCORR  =      T    Harris-Foulkes like correction to forces

   POTIM  = 0.5000    time-step for ionic-motion
   TEIN   =    0.0    initial temperature
   TEBEG  =    0.0;   TEEND  =   0.0 temperature during run
   SMASS  =  -3.00    Nose mass-parameter (am)
   estimated Nose-frequenzy (Omega)   =  0.10E-29 period in steps =****** mass=  -0.280E-25a.u.
   SCALEE = 1.0000    scale energy and forces
   NPACO  =    256;   APACO  = 16.0  distance and # of slots for P.C.
   PSTRESS=    0.0 pullay stress

  Mass of Ions in am
   POMASS =  12.01  1.00
  Ionic Valenz
   ZVAL   =   4.00  1.00
  Atomic Wigner-Seitz radii
   RWIGS  =  -1.00 -1.00
  virtual crystal weights 
   VCA    =   1.00  1.00
   NELECT =      30.0000    total number of electrons
   NUPDOWN=      -1.0000    fix difference up-down

 DOS related values:
   EMIN   =  10.00;   EMAX   =-10.00  energy-range for DOS
   EFERMI =   0.00
   ISMEAR =     0;   SIGMA  =   0.01  broadening in eV -4-tet -1-fermi 0-gaus

 Electronic relaxation 2 (details)
   IALGO  =     38    algorithm
   LDIAG  =      T    sub-space diagonalisation (order eigenvalues)
   LSUBROT=      F    optimize rotation matrix (better conditioning)
   TURBO    =      0    0=normal 1=particle mesh
   IRESTART =      0    0=no restart 2=restart with 2 vectors
   NREBOOT  =      0    no. of reboots
   NMIN     =      0    reboot dimension
   EREF     =   0.00    reference energy to select bands
   IMIX   =      4    mixing-type and parameters
     AMIX     =   0.40;   BMIX     =  1.00
     AMIX_MAG =   1.60;   BMIX_MAG =  1.00
     AMIN     =   0.10
     WC   =   100.;   INIMIX=   1;  MIXPRE=   1;  MAXMIX= -45

 Intra band minimization:
   WEIMIN = 0.0000     energy-eigenvalue tresh-hold
   EBREAK =  0.10E-08  absolut break condition
   DEPER  =   0.30     relativ break condition  

   TIME   =   0.40     timestep for ELM

  volume/ion in A,a.u.               =    3572.92     24111.23
  Fermi-wavevector in a.u.,A,eV,Ry     =   0.145338  0.274650  0.287399  0.021123
  Thomas-Fermi vector in A             =   0.812913
 
 Write flags
   LWAVE  =      T    write WAVECAR
   LCHARG =      T    write CHGCAR
   LVTOT  =      F    write LOCPOT, total local potential
   LVHAR  =      F    write LOCPOT, Hartree potential only
   LELF   =      F    write electronic localiz. function (ELF)
   LORBIT =      0    0 simple, 1 ext, 2 COOP (PROOUT)


 Dipole corrections
   LMONO  =      F    monopole corrections only (constant potential shift)
   LDIPOL =      F    correct potential (dipole corrections)
   IDIPOL =      0    1-x, 2-y, 3-z, 4-all directions 
   EPSILON=  1.0000000 bulk dielectric constant

 Exchange correlation treatment:
   GGA     =    --    GGA type
   LEXCH   =     8    internal setting for exchange type
   VOSKOWN=      0    Vosko Wilk Nusair interpolation
   LHFCALC =     F    Hartree Fock is set to
   LHFONE  =     F    Hartree Fock one center treatment
   AEXX    =    0.0000 exact exchange contribution

 Linear response parameters
   LEPSILON=     F    determine dielectric tensor
   LRPA    =     F    only Hartree local field effects (RPA)
   LNABLA  =     F    use nabla operator in PAW spheres
   LVEL    =     F    velocity operator in full k-point grid
   LINTERFAST=   F  fast interpolation
   KINTER  =     0    interpolate to denser k-point grid
   CSHIFT  =0.1000    complex shift for real part using Kramers Kronig
   OMEGAMAX=  -1.0    maximum frequency
   DEG_THRESHOLD= 0.2000000E-02 threshold for treating states as degnerate
   RTIME   =    0.100 relaxation time in fs

 Orbital magnetization related:
   ORBITALMAG=     F  switch on orbital magnetization
   LCHIMAG   =     F  perturbation theory with respect to B field
   DQ        =  0.001000  dq finite difference perturbation B field



--------------------------------------------------------------------------------------------------------


 Static calculation
 charge density and potential will be updated during run
 non-spin polarized calculation
 Variant of blocked Davidson
 Davidson routine will perform the subspace rotation
 perform sub-space diagonalisation
    after iterative eigenvector-optimisation
 modified Broyden-mixing scheme, WC =      100.0
 initial mixing is a Kerker type mixing with AMIX =  0.4000 and BMIX =      1.0000
 Hartree-type preconditioning will be used
 using additional bands            9
 reciprocal scheme for non local part
 use partial core corrections
 calculate Harris-corrections to forces 
   (improved forces if not selfconsistent)
 use gradient corrections 
 use of overlap-Matrix (Vanderbilt PP)
 Gauss-broadening in eV      SIGMA  =   0.01


--------------------------------------------------------------------------------------------------------


  energy-cutoff  :     2000.00
  volume of cell :    42875.00
      direct lattice vectors                 reciprocal lattice vectors
    35.000000000  0.000000000  0.000000000     0.028571429  0.000000000  0.000000000
     0.000000000 35.000000000  0.000000000     0.000000000  0.028571429  0.000000000
     0.000000000  0.000000000 35.000000000     0.000000000  0.000000000  0.028571429

  length of vectors
    35.000000000 35.000000000 35.000000000     0.028571429  0.028571429  0.028571429


 
 k-points in units of 2pi/SCALE and weight: automatic mesh                          
   0.00000000  0.00000000  0.00000000       1.000
 
 k-points in reciprocal lattice and weights: automatic mesh                          
   0.00000000  0.00000000  0.00000000       1.000
 
 position of ions in fractional coordinates (direct lattice) 
   0.99939789  0.04376746  0.96103043
   0.96358060  0.02783151  0.95407400
   0.96061986  0.99355149  0.93404529
   0.99345877  0.97524557  0.92089160
   0.02927966  0.99132809  0.92767883
   0.03225714  0.02561940  0.94771477
   0.00171640  0.07018751  0.97687440
   0.93814000  0.04187006  0.96455520
   0.93282934  0.98109680  0.92878086
   0.99113309  0.94869783  0.90522086
   0.05475957  0.97731189  0.91716017
   0.06000100  0.03807646  0.95314166
 
 position of ions in cartesian coordinates  (Angst):
  34.97892600  1.53186100 33.63606500
  33.72532100  0.97410300 33.39259000
  33.62169500 34.77430200 32.69158500
  34.77105700 34.13359500 32.23120600
   1.02478800 34.69648300 32.46875900
   1.12900000  0.89667900 33.17001700
   0.06007400  2.45656300 34.19060400
  32.83490000  1.46545200 33.75943200
  32.64902700 34.33838800 32.50733000
  34.68965800 33.20442400 31.68273000
   1.91658500 34.20591600 32.10060600
   2.10003500  1.33267600 33.35995800
 


--------------------------------------------------------------------------------------------------------


 use parallel FFT for wavefunctions z direction half grid
 k-point  1 :   0.0000 0.0000 0.0000  plane waves: 4353902

 maximum and minimum number of plane-waves per node :    544247   544233

 maximum number of plane-waves:   4353902
 maximum index in each direction: 
   IXMAX=  127   IYMAX=  127   IZMAX=  127
   IXMIN= -127   IYMIN= -127   IZMIN=    0

 NGX is ok and might be reduce to 510
 NGY is ok and might be reduce to 510
 NGZ is ok and might be reduce to 510

 parallel 3D FFT for wavefunctions:
    minimum data exchange during FFTs selected (reduces bandwidth)
 parallel 3D FFT for charge:
    minimum data exchange during FFTs selected (reduces bandwidth)


 total amount of memory used by VASP on root node  4407419. kBytes
========================================================================

   base      :      30000. kBytes
   nonl-proj :     296064. kBytes
   fftplans  :    1475802. kBytes
   grid      :    2553282. kBytes
   one-center:         23. kBytes
   wavefun   :      52248. kBytes
 
     INWAV:  cpu time    0.0000: real time    0.0000
 Broyden mixing: mesh for mixing (old mesh)
   NGX =255   NGY =255   NGZ =255
  (NGX  =***   NGY  =***   NGZ  =***)
  gives a total of ****** points

 initial charge density was supplied:
 charge density of overlapping atoms calculated
 number of electron      30.0000000 magnetization 
 keeping initial charge density in first step


--------------------------------------------------------------------------------------------------------


 Maximum index for augmentation-charges          823 (set IRDMAX)


--------------------------------------------------------------------------------------------------------


 First call to EWALD:  gamma=   0.051
 Maximum number of real-space cells 3x 3x 3
 Maximum number of reciprocal cells 3x 3x 3

 FEWALD executed in parallel
    FEWALD:  cpu time    0.0016: real time    0.0016


----------------------------------------- Iteration    1(   1)  ---------------------------------------


    POTLOK:  cpu time   17.7780: real time   17.8287
    SETDIJ:  cpu time    0.1373: real time    0.1376
     EDDAV:  cpu time   19.9375: real time   20.0020
       DOS:  cpu time    0.0014: real time    0.0014
    --------------------------------------------
      LOOP:  cpu time   37.8567: real time   37.9744

 eigenvalue-minimisations  :    64
 total energy-change (2. order) : 0.2978159E+03  (-0.6505111E+03)
 number of electron      30.0000000 magnetization 
 augmentation part       30.0000000 magnetization 

 Free energy of the ion-electron system (eV)
  ---------------------------------------------------
  alpha Z        PSCENC =         0.06577044
  Ewald energy   TEWEN  =      2286.41994015
  -Hartree energ DENC   =     -2895.23415426
  -exchange      EXHF   =         0.00000000
  -V(xc)+E(xc)   XCENC  =        55.72874736
  PAW double counting   =       691.03434805     -659.29071172
  entropy T*S    EENTRO =        -0.00000008
  eigenvalues    EBANDS =      -138.77148570
  atomic energy  EATOM  =       957.86343653
  Solvation  Ediel_sol  =         0.00000000
  ---------------------------------------------------
  free energy    TOTEN  =       297.81589076 eV

  energy without entropy =      297.81589084  energy(sigma->0) =      297.81589080


--------------------------------------------------------------------------------------------------------




----------------------------------------- Iteration    1(   2)  ---------------------------------------


     EDDAV:  cpu time   27.4218: real time   27.5094
       DOS:  cpu time    0.0015: real time    0.0015
    --------------------------------------------
      LOOP:  cpu time   27.4256: real time   27.5157

 eigenvalue-minimisations  :    96
 total energy-change (2. order) :-0.1762467E+03  (-0.1743235E+03)
 number of electron      30.0000000 magnetization 
 augmentation part       30.0000000 magnetization 

 Free energy of the ion-electron system (eV)
  ---------------------------------------------------
  alpha Z        PSCENC =         0.06577044
  Ewald energy   TEWEN  =      2286.41994015
  -Hartree energ DENC   =     -2895.23415426
  -exchange      EXHF   =         0.00000000
  -V(xc)+E(xc)   XCENC  =        55.72874736
  PAW double counting   =       691.03434805     -659.29071172
  entropy T*S    EENTRO =        -0.00345736
  eigenvalues    EBANDS =      -315.01474505
  atomic energy  EATOM  =       957.86343653
  Solvation  Ediel_sol  =         0.00000000
  ---------------------------------------------------
  free energy    TOTEN  =       121.56917413 eV

  energy without entropy =      121.57263149  energy(sigma->0) =      121.57090281


--------------------------------------------------------------------------------------------------------




----------------------------------------- Iteration    1(   3)  ---------------------------------------


     EDDAV:  cpu time   21.7514: real time   21.8216
       DOS:  cpu time    0.0012: real time    0.0012
    --------------------------------------------
      LOOP:  cpu time   21.7552: real time   21.8278

 eigenvalue-minimisations  :    72
 total energy-change (2. order) :-0.1168437E+03  (-0.1079789E+03)
 number of electron      30.0000000 magnetization 
 augmentation part       30.0000000 magnetization 

 Free energy of the ion-electron system (eV)
  ---------------------------------------------------
  alpha Z        PSCENC =         0.06577044
  Ewald energy   TEWEN  =      2286.41994015
  -Hartree energ DENC   =     -2895.23415426
  -exchange      EXHF   =         0.00000000
  -V(xc)+E(xc)   XCENC  =        55.72874736
  PAW double counting   =       691.03434805     -659.29071172
  entropy T*S    EENTRO =        -0.00000000
  eigenvalues    EBANDS =      -431.86187635
  atomic energy  EATOM  =       957.86343653
  Solvation  Ediel_sol  =         0.00000000
  ---------------------------------------------------
  free energy    TOTEN  =         4.72550020 eV

  energy without entropy =        4.72550020  energy(sigma->0) =        4.72550020


--------------------------------------------------------------------------------------------------------




----------------------------------------- Iteration    1(   4)  ---------------------------------------


     EDDAV:  cpu time   25.5442: real time   25.6256
       DOS:  cpu time    0.0012: real time    0.0012
    --------------------------------------------
      LOOP:  cpu time   25.5485: real time   25.6323

 eigenvalue-minimisations  :    88
 total energy-change (2. order) :-0.7686119E+02  (-0.7678491E+02)
 number of electron      30.0000000 magnetization 
 augmentation part       30.0000000 magnetization 

 Free energy of the ion-electron system (eV)
  ---------------------------------------------------
  alpha Z        PSCENC =         0.06577044
  Ewald energy   TEWEN  =      2286.41994015
  -Hartree energ DENC   =     -2895.23415426
  -exchange      EXHF   =         0.00000000
  -V(xc)+E(xc)   XCENC  =        55.72874736
  PAW double counting   =       691.03434805     -659.29071172
  entropy T*S    EENTRO =        -0.00000000
  eigenvalues    EBANDS =      -508.72306547
  atomic energy  EATOM  =       957.86343653
  Solvation  Ediel_sol  =         0.00000000
  ---------------------------------------------------
  free energy    TOTEN  =       -72.13568892 eV

  energy without entropy =      -72.13568892  energy(sigma->0) =      -72.13568892


--------------------------------------------------------------------------------------------------------




----------------------------------------- Iteration    1(   5)  ---------------------------------------


     EDDAV:  cpu time   19.8509: real time   19.9154
       DOS:  cpu time    0.0012: real time    0.0012
    CHARGE:  cpu time    3.0032: real time    3.0159
    MIXING:  cpu time    0.4394: real time    0.4404
    --------------------------------------------
      LOOP:  cpu time   23.2973: real time   23.3783

 eigenvalue-minimisations  :    64
 total energy-change (2. order) :-0.1165378E+02  (-0.1164326E+02)
 number of electron      30.0000000 magnetization 
 augmentation part        0.1296438 magnetization 

 Broyden mixing:
  rms(total) = 0.13281E+01    rms(broyden)= 0.13281E+01
  rms(prec ) = 0.13759E+01
  weight for this iteration     100.00

 Free energy of the ion-electron system (eV)
  ---------------------------------------------------
  alpha Z        PSCENC =         0.06577044
  Ewald energy   TEWEN  =      2286.41994015
  -Hartree energ DENC   =     -2895.23415426
  -exchange      EXHF   =         0.00000000
  -V(xc)+E(xc)   XCENC  =        55.72874736
  PAW double counting   =       691.03434805     -659.29071172
  entropy T*S    EENTRO =        -0.00000000
  eigenvalues    EBANDS =      -520.37684334
  atomic energy  EATOM  =       957.86343653
  Solvation  Ediel_sol  =         0.00000000
  ---------------------------------------------------
  free energy    TOTEN  =       -83.78946679 eV

  energy without entropy =      -83.78946679  energy(sigma->0) =      -83.78946679


--------------------------------------------------------------------------------------------------------




----------------------------------------- Iteration    1(   6)  ---------------------------------------


    POTLOK:  cpu time   17.4535: real time   17.5014
    SETDIJ:  cpu time    0.1486: real time    0.1490
     EDDAV:  cpu time   25.5372: real time   25.6180
       DOS:  cpu time    0.0008: real time    0.0008
    CHARGE:  cpu time    2.9443: real time    2.9563
    MIXING:  cpu time    0.4520: real time    0.4531
    --------------------------------------------
      LOOP:  cpu time   46.5390: real time   46.6838

 eigenvalue-minimisations  :    88
 total energy-change (2. order) : 0.5508466E+01  (-0.1028985E+01)
 number of electron      30.0000000 magnetization 
 augmentation part        0.1204161 magnetization 

 Broyden mixing:
  rms(total) = 0.69035E+00    rms(broyden)= 0.69035E+00
  rms(prec ) = 0.71667E+00
  weight for this iteration     100.00

 eigenvalues of (default mixing * dielectric matrix)
  average eigenvalue GAMMA=   1.9420
  1.9420

 Free energy of the ion-electron system (eV)
  ---------------------------------------------------
  alpha Z        PSCENC =         0.06577044
  Ewald energy   TEWEN  =      2286.41994015
  -Hartree energ DENC   =     -2956.11868822
  -exchange      EXHF   =         0.00000000
  -V(xc)+E(xc)   XCENC  =        58.45996184
  PAW double counting   =       888.16529960     -856.81122116
  entropy T*S    EENTRO =        -0.00000000
  eigenvalues    EBANDS =      -456.32549948
  atomic energy  EATOM  =       957.86343653
  Solvation  Ediel_sol  =         0.00000000
  ---------------------------------------------------
  free energy    TOTEN  =       -78.28100031 eV

  energy without entropy =      -78.28100031  energy(sigma->0) =      -78.28100031


--------------------------------------------------------------------------------------------------------




----------------------------------------- Iteration    1(   7)  ---------------------------------------


    POTLOK:  cpu time   18.2363: real time   18.2861
    SETDIJ:  cpu time    0.3041: real time    0.3051
     EDDAV:  cpu time   26.3024: real time   26.3855
       DOS:  cpu time    0.0009: real time    0.0009
    CHARGE:  cpu time    2.9362: real time    2.9484
    MIXING:  cpu time    0.5528: real time    0.5544
    --------------------------------------------
      LOOP:  cpu time   48.3353: real time   48.4855

 eigenvalue-minimisations  :    72
 total energy-change (2. order) : 0.2079727E+01  (-0.8299926E+00)
 number of electron      30.0000000 magnetization 
 augmentation part        0.1061734 magnetization 

 Broyden mixing:
  rms(total) = 0.21139E+00    rms(broyden)= 0.21139E+00
  rms(prec ) = 0.21847E+00
  weight for this iteration     100.00

 eigenvalues of (default mixing * dielectric matrix)
  average eigenvalue GAMMA=   2.0183
  2.0183  2.0183

 Free energy of the ion-electron system (eV)
  ---------------------------------------------------
  alpha Z        PSCENC =         0.06577044
  Ewald energy   TEWEN  =      2286.41994015
  -Hartree energ DENC   =     -3026.19432857
  -exchange      EXHF   =         0.00000000
  -V(xc)+E(xc)   XCENC  =        61.86972197
  PAW double counting   =       983.24578786     -952.09556188
  entropy T*S    EENTRO =        -0.00000000
  eigenvalues    EBANDS =      -387.37604009
  atomic energy  EATOM  =       957.86343653
  Solvation  Ediel_sol  =         0.00000000
  ---------------------------------------------------
  free energy    TOTEN  =       -76.20127358 eV

  energy without entropy =      -76.20127358  energy(sigma->0) =      -76.20127358


--------------------------------------------------------------------------------------------------------




----------------------------------------- Iteration    1(   8)  ---------------------------------------


    POTLOK:  cpu time   18.3770: real time   18.4272
    SETDIJ:  cpu time    0.3068: real time    0.3076
     EDDAV:  cpu time   30.9102: real time   31.0059
       DOS:  cpu time    0.0007: real time    0.0007
    CHARGE:  cpu time    2.9352: real time    2.9471
    MIXING:  cpu time    0.5658: real time    0.5675
    --------------------------------------------
      LOOP:  cpu time   53.0983: real time   53.2608

 eigenvalue-minimisations  :    88
 total energy-change (2. order) : 0.6768158E-01  (-0.9970998E-01)
 number of electron      30.0000000 magnetization 
 augmentation part        0.1124042 magnetization 

 Broyden mixing:
  rms(total) = 0.75565E-01    rms(broyden)= 0.75565E-01
  rms(prec ) = 0.83347E-01
  weight for this iteration     100.00

 eigenvalues of (default mixing * dielectric matrix)
  average eigenvalue GAMMA=   1.7363
  1.0553  2.4113  1.7424

 Free energy of the ion-electron system (eV)
  ---------------------------------------------------
  alpha Z        PSCENC =         0.06577044
  Ewald energy   TEWEN  =      2286.41994015
  -Hartree energ DENC   =     -3025.36573872
  -exchange      EXHF   =         0.00000000
  -V(xc)+E(xc)   XCENC  =        61.95340307
  PAW double counting   =       901.97661529     -870.61981904
  entropy T*S    EENTRO =        -0.00000000
  eigenvalues    EBANDS =      -388.42719971
  atomic energy  EATOM  =       957.86343653
  Solvation  Ediel_sol  =         0.00000000
  ---------------------------------------------------
  free energy    TOTEN  =       -76.13359200 eV

  energy without entropy =      -76.13359200  energy(sigma->0) =      -76.13359200


--------------------------------------------------------------------------------------------------------




----------------------------------------- Iteration    1(   9)  ---------------------------------------


    POTLOK:  cpu time   18.3807: real time   18.4308
    SETDIJ:  cpu time    0.3091: real time    0.3102
     EDDAV:  cpu time   23.9853: real time   24.0601
       DOS:  cpu time    0.0004: real time    0.0004
    CHARGE:  cpu time    2.9323: real time    2.9441
    MIXING:  cpu time    0.5758: real time    0.5772
    --------------------------------------------
      LOOP:  cpu time   46.1861: real time   46.3280

 eigenvalue-minimisations  :    64
 total energy-change (2. order) : 0.6346456E-01  (-0.1345027E-01)
 number of electron      30.0000000 magnetization 
 augmentation part        0.1123507 magnetization 

 Broyden mixing:
  rms(total) = 0.20801E-01    rms(broyden)= 0.20801E-01
  rms(prec ) = 0.28381E-01
  weight for this iteration     100.00

 eigenvalues of (default mixing * dielectric matrix)
  average eigenvalue GAMMA=   1.5880
  2.3519  1.9164  1.0419  1.0419

 Free energy of the ion-electron system (eV)
  ---------------------------------------------------
  alpha Z        PSCENC =         0.06577044
  Ewald energy   TEWEN  =      2286.41994015
  -Hartree energ DENC   =     -3036.71246975
  -exchange      EXHF   =         0.00000000
  -V(xc)+E(xc)   XCENC  =        62.44893747
  PAW double counting   =       908.37959557     -877.03381686
  entropy T*S    EENTRO =        -0.00000000
  eigenvalues    EBANDS =      -377.50152098
  atomic energy  EATOM  =       957.86343653
  Solvation  Ediel_sol  =         0.00000000
  ---------------------------------------------------
  free energy    TOTEN  =       -76.07012744 eV

  energy without entropy =      -76.07012744  energy(sigma->0) =      -76.07012744


--------------------------------------------------------------------------------------------------------




----------------------------------------- Iteration    1(  10)  ---------------------------------------


    POTLOK:  cpu time   18.3991: real time   18.4496
    SETDIJ:  cpu time    0.3063: real time    0.3071
     EDDAV:  cpu time   33.2271: real time   33.3304
       DOS:  cpu time    0.0008: real time    0.0008
    CHARGE:  cpu time    2.9259: real time    2.9377
    MIXING:  cpu time    0.6022: real time    0.6039
    --------------------------------------------
      LOOP:  cpu time   55.4639: real time   55.6347

 eigenvalue-minimisations  :    96
 total energy-change (2. order) : 0.2205862E-02  (-0.3478921E-02)
 number of electron      30.0000000 magnetization 
 augmentation part        0.1199446 magnetization 

 Broyden mixing:
  rms(total) = 0.15232E-01    rms(broyden)= 0.15231E-01
  rms(prec ) = 0.21160E-01
  weight for this iteration     100.00

 eigenvalues of (default mixing * dielectric matrix)
  average eigenvalue GAMMA=   1.6707
  2.4977  2.4977  1.4472  0.9554  0.9554

 Free energy of the ion-electron system (eV)
  ---------------------------------------------------
  alpha Z        PSCENC =         0.06577044
  Ewald energy   TEWEN  =      2286.41994015
  -Hartree energ DENC   =     -3040.02703558
  -exchange      EXHF   =         0.00000000
  -V(xc)+E(xc)   XCENC  =        62.50453988
  PAW double counting   =       912.18511000     -880.84625912
  entropy T*S    EENTRO =        -0.00000000
  eigenvalues    EBANDS =      -374.23342388
  atomic energy  EATOM  =       957.86343653
  Solvation  Ediel_sol  =         0.00000000
  ---------------------------------------------------
  free energy    TOTEN  =       -76.06792158 eV

  energy without entropy =      -76.06792158  energy(sigma->0) =      -76.06792158


--------------------------------------------------------------------------------------------------------




----------------------------------------- Iteration    1(  11)  ---------------------------------------


    POTLOK:  cpu time   18.4332: real time   18.4835
    SETDIJ:  cpu time    0.3087: real time    0.3098
     EDDAV:  cpu time   26.2899: real time   26.3734
       DOS:  cpu time    0.0007: real time    0.0007
    CHARGE:  cpu time    2.9384: real time    2.9503
    MIXING:  cpu time    0.6102: real time    0.6117
    --------------------------------------------
      LOOP:  cpu time   48.5837: real time   48.7349

 eigenvalue-minimisations  :    72
 total energy-change (2. order) : 0.5682973E-02  (-0.6868088E-03)
 number of electron      30.0000000 magnetization 
 augmentation part        0.1202473 magnetization 

 Broyden mixing:
  rms(total) = 0.83765E-02    rms(broyden)= 0.83765E-02
  rms(prec ) = 0.12192E-01
  weight for this iteration     100.00

 eigenvalues of (default mixing * dielectric matrix)
  average eigenvalue GAMMA=   1.7782
  3.4813  2.4183  1.8059  1.0830  1.0830  0.7976

 Free energy of the ion-electron system (eV)
  ---------------------------------------------------
  alpha Z        PSCENC =         0.06577044
  Ewald energy   TEWEN  =      2286.41994015
  -Hartree energ DENC   =     -3045.29649562
  -exchange      EXHF   =         0.00000000
  -V(xc)+E(xc)   XCENC  =        62.59945015
  PAW double counting   =       940.82629641     -909.50662620
  entropy T*S    EENTRO =        -0.00000000
  eigenvalues    EBANDS =      -369.03401046
  atomic energy  EATOM  =       957.86343653
  Solvation  Ediel_sol  =         0.00000000
  ---------------------------------------------------
  free energy    TOTEN  =       -76.06223861 eV

  energy without entropy =      -76.06223861  energy(sigma->0) =      -76.06223861


--------------------------------------------------------------------------------------------------------




----------------------------------------- Iteration    1(  12)  ---------------------------------------


    POTLOK:  cpu time   18.4429: real time   18.4935
    SETDIJ:  cpu time    0.3092: real time    0.3100
     EDDAV:  cpu time   30.9101: real time   31.0066
       DOS:  cpu time    0.0007: real time    0.0007
    CHARGE:  cpu time    2.9395: real time    2.9514
    MIXING:  cpu time    0.6341: real time    0.6359
    --------------------------------------------
      LOOP:  cpu time   53.2391: real time   53.4031

 eigenvalue-minimisations  :    88
 total energy-change (2. order) :-0.1194485E-03  (-0.4648353E-03)
 number of electron      30.0000000 magnetization 
 augmentation part        0.1199110 magnetization 

 Broyden mixing:
  rms(total) = 0.56185E-02    rms(broyden)= 0.56185E-02
  rms(prec ) = 0.79095E-02
  weight for this iteration     100.00

 eigenvalues of (default mixing * dielectric matrix)
  average eigenvalue GAMMA=   1.8803
  4.4260  2.4202  1.8320  1.5319  1.1740  0.8890  0.8890

 Free energy of the ion-electron system (eV)
  ---------------------------------------------------
  alpha Z        PSCENC =         0.06577044
  Ewald energy   TEWEN  =      2286.41994015
  -Hartree energ DENC   =     -3048.73130011
  -exchange      EXHF   =         0.00000000
  -V(xc)+E(xc)   XCENC  =        62.65894947
  PAW double counting   =       956.73300954     -925.42595680
  entropy T*S    EENTRO =        -0.00000000
  eigenvalues    EBANDS =      -365.64620727
  atomic energy  EATOM  =       957.86343653
  Solvation  Ediel_sol  =         0.00000000
  ---------------------------------------------------
  free energy    TOTEN  =       -76.06235806 eV

  energy without entropy =      -76.06235806  energy(sigma->0) =      -76.06235806


--------------------------------------------------------------------------------------------------------




----------------------------------------- Iteration    1(  13)  ---------------------------------------


    POTLOK:  cpu time   18.4456: real time   18.4959
    SETDIJ:  cpu time    0.3058: real time    0.3069
     EDDAV:  cpu time   28.6078: real time   28.6977
       DOS:  cpu time    0.0007: real time    0.0007
    CHARGE:  cpu time    2.9355: real time    2.9475
    MIXING:  cpu time    0.6529: real time    0.6548
    --------------------------------------------
      LOOP:  cpu time   50.9509: real time   51.1092

 eigenvalue-minimisations  :    80
 total energy-change (2. order) :-0.8629442E-02  (-0.1251597E-03)
 number of electron      30.0000000 magnetization 
 augmentation part        0.1200753 magnetization 

 Broyden mixing:
  rms(total) = 0.35749E-02    rms(broyden)= 0.35749E-02
  rms(prec ) = 0.48956E-02
  weight for this iteration     100.00

 eigenvalues of (default mixing * dielectric matrix)
  average eigenvalue GAMMA=   1.9919
  5.1862  2.8024  2.2092  1.6509  1.1912  1.1107  0.9172  0.8673

 Free energy of the ion-electron system (eV)
  ---------------------------------------------------
  alpha Z        PSCENC =         0.06577044
  Ewald energy   TEWEN  =      2286.41994015
  -Hartree energ DENC   =     -3050.35347386
  -exchange      EXHF   =         0.00000000
  -V(xc)+E(xc)   XCENC  =        62.66721748
  PAW double counting   =       953.60823776     -922.29540858
  entropy T*S    EENTRO =        -0.00000000
  eigenvalues    EBANDS =      -364.04670741
  atomic energy  EATOM  =       957.86343653
  Solvation  Ediel_sol  =         0.00000000
  ---------------------------------------------------
  free energy    TOTEN  =       -76.07098750 eV

  energy without entropy =      -76.07098750  energy(sigma->0) =      -76.07098750


--------------------------------------------------------------------------------------------------------




----------------------------------------- Iteration    1(  14)  ---------------------------------------


    POTLOK:  cpu time   18.4462: real time   18.4969
    SETDIJ:  cpu time    0.3064: real time    0.3072
     EDDAV:  cpu time   31.0209: real time   31.1168
       DOS:  cpu time    0.0007: real time    0.0008
    CHARGE:  cpu time    2.9746: real time    2.9864
    MIXING:  cpu time    0.6714: real time    0.6734
    --------------------------------------------
      LOOP:  cpu time   53.4230: real time   53.5867

 eigenvalue-minimisations  :    80
 total energy-change (2. order) :-0.8915389E-02  (-0.1254438E-03)
 number of electron      30.0000000 magnetization 
 augmentation part        0.1200651 magnetization 

 Broyden mixing:
  rms(total) = 0.19161E-02    rms(broyden)= 0.19161E-02
  rms(prec ) = 0.26962E-02
  weight for this iteration     100.00

 eigenvalues of (default mixing * dielectric matrix)
  average eigenvalue GAMMA=   2.1814
  6.4054  3.3708  2.4715  1.8847  1.5267  1.2457  1.0134  0.8572  0.8572

 Free energy of the ion-electron system (eV)
  ---------------------------------------------------
  alpha Z        PSCENC =         0.06577044
  Ewald energy   TEWEN  =      2286.41994015
  -Hartree energ DENC   =     -3051.34070334
  -exchange      EXHF   =         0.00000000
  -V(xc)+E(xc)   XCENC  =        62.66454957
  PAW double counting   =       949.23736663     -917.92147597
  entropy T*S    EENTRO =        -0.00000000
  eigenvalues    EBANDS =      -363.06878689
  atomic energy  EATOM  =       957.86343653
  Solvation  Ediel_sol  =         0.00000000
  ---------------------------------------------------
  free energy    TOTEN  =       -76.07990289 eV

  energy without entropy =      -76.07990289  energy(sigma->0) =      -76.07990289


--------------------------------------------------------------------------------------------------------




----------------------------------------- Iteration    1(  15)  ---------------------------------------


    POTLOK:  cpu time   18.5192: real time   18.5697
    SETDIJ:  cpu time    0.3032: real time    0.3040
     EDDAV:  cpu time   23.9859: real time   24.0620
       DOS:  cpu time    0.0005: real time    0.0005
    CHARGE:  cpu time    2.9435: real time    2.9552
    MIXING:  cpu time    0.7001: real time    0.7021
    --------------------------------------------
      LOOP:  cpu time   46.4552: real time   46.5989

 eigenvalue-minimisations  :    64
 total energy-change (2. order) :-0.6454050E-02  (-0.8653466E-04)
 number of electron      30.0000000 magnetization 
 augmentation part        0.1202691 magnetization 

 Broyden mixing:
  rms(total) = 0.99962E-03    rms(broyden)= 0.99962E-03
  rms(prec ) = 0.13641E-02
  weight for this iteration     100.00

 eigenvalues of (default mixing * dielectric matrix)
  average eigenvalue GAMMA=   2.1981
  6.7566  3.8856  2.4286  1.8452  1.8452  1.2484  1.2484  0.9940  0.8646  0.8646

 Free energy of the ion-electron system (eV)
  ---------------------------------------------------
  alpha Z        PSCENC =         0.06577044
  Ewald energy   TEWEN  =      2286.41994015
  -Hartree energ DENC   =     -3051.79453780
  -exchange      EXHF   =         0.00000000
  -V(xc)+E(xc)   XCENC  =        62.65817374
  PAW double counting   =       945.82718859     -914.50865927
  entropy T*S    EENTRO =        -0.00000000
  eigenvalues    EBANDS =      -362.61766932
  atomic energy  EATOM  =       957.86343653
  Solvation  Ediel_sol  =         0.00000000
  ---------------------------------------------------
  free energy    TOTEN  =       -76.08635694 eV

  energy without entropy =      -76.08635694  energy(sigma->0) =      -76.08635694


--------------------------------------------------------------------------------------------------------




----------------------------------------- Iteration    1(  16)  ---------------------------------------


    POTLOK:  cpu time   18.5076: real time   18.5583
    SETDIJ:  cpu time    0.3019: real time    0.3026
     EDDAV:  cpu time   33.2044: real time   33.3077
       DOS:  cpu time    0.0007: real time    0.0007
    CHARGE:  cpu time    2.9414: real time    2.9535
    MIXING:  cpu time    0.7161: real time    0.7181
    --------------------------------------------
      LOOP:  cpu time   55.6747: real time   55.8461

 eigenvalue-minimisations  :    96
 total energy-change (2. order) :-0.1972260E-02  (-0.1543132E-04)
 number of electron      30.0000000 magnetization 
 augmentation part        0.1203230 magnetization 

 Broyden mixing:
  rms(total) = 0.81943E-03    rms(broyden)= 0.81943E-03
  rms(prec ) = 0.10247E-02
  weight for this iteration     100.00

 eigenvalues of (default mixing * dielectric matrix)
  average eigenvalue GAMMA=   2.2815
  7.4188  4.4422  2.5510  2.5510  1.8094  1.3471  1.3471  0.9621  0.9621  0.8531
  0.8531

 Free energy of the ion-electron system (eV)
  ---------------------------------------------------
  alpha Z        PSCENC =         0.06577044
  Ewald energy   TEWEN  =      2286.41994015
  -Hartree energ DENC   =     -3051.91920865
  -exchange      EXHF   =         0.00000000
  -V(xc)+E(xc)   XCENC  =        62.65546670
  PAW double counting   =       947.39826517     -916.08117114
  entropy T*S    EENTRO =        -0.00000000
  eigenvalues    EBANDS =      -362.49082840
  atomic energy  EATOM  =       957.86343653
  Solvation  Ediel_sol  =         0.00000000
  ---------------------------------------------------
  free energy    TOTEN  =       -76.08832920 eV

  energy without entropy =      -76.08832920  energy(sigma->0) =      -76.08832920


--------------------------------------------------------------------------------------------------------




----------------------------------------- Iteration    1(  17)  ---------------------------------------


    POTLOK:  cpu time   18.5178: real time   18.5685
    SETDIJ:  cpu time    0.3035: real time    0.3042
     EDDAV:  cpu time   21.6877: real time   21.7555
       DOS:  cpu time    0.0007: real time    0.0007
    CHARGE:  cpu time    2.9463: real time    2.9584
    MIXING:  cpu time    0.7455: real time    0.7473
    --------------------------------------------
      LOOP:  cpu time   44.2040: real time   44.3398

 eigenvalue-minimisations  :    56
 total energy-change (2. order) :-0.1600798E-02  (-0.1073774E-04)
 number of electron      30.0000000 magnetization 
 augmentation part        0.1203283 magnetization 

 Broyden mixing:
  rms(total) = 0.35865E-03    rms(broyden)= 0.35865E-03
  rms(prec ) = 0.47120E-03
  weight for this iteration     100.00

 eigenvalues of (default mixing * dielectric matrix)
  average eigenvalue GAMMA=   2.3121
  7.7978  5.0765  2.8546  2.4357  1.9338  1.4400  1.4400  1.0274  1.0274  1.0083
  0.8516  0.8516

 Free energy of the ion-electron system (eV)
  ---------------------------------------------------
  alpha Z        PSCENC =         0.06577044
  Ewald energy   TEWEN  =      2286.41994015
  -Hartree energ DENC   =     -3051.93403277
  -exchange      EXHF   =         0.00000000
  -V(xc)+E(xc)   XCENC  =        62.65135228
  PAW double counting   =       949.03366959     -917.71775612
  entropy T*S    EENTRO =        -0.00000000
  eigenvalues    EBANDS =      -362.47231009
  atomic energy  EATOM  =       957.86343653
  Solvation  Ediel_sol  =         0.00000000
  ---------------------------------------------------
  free energy    TOTEN  =       -76.08993000 eV

  energy without entropy =      -76.08993000  energy(sigma->0) =      -76.08993000


--------------------------------------------------------------------------------------------------------




----------------------------------------- Iteration    1(  18)  ---------------------------------------


    POTLOK:  cpu time   18.5055: real time   18.5562
    SETDIJ:  cpu time    0.3073: real time    0.3081
     EDDAV:  cpu time   30.9097: real time   31.0065
       DOS:  cpu time    0.0007: real time    0.0007
    CHARGE:  cpu time    2.9440: real time    2.9561
    MIXING:  cpu time    0.7653: real time    0.7674
    --------------------------------------------
      LOOP:  cpu time   53.4351: real time   53.6006

 eigenvalue-minimisations  :    88
 total energy-change (2. order) :-0.5237068E-03  (-0.2177080E-05)
 number of electron      30.0000000 magnetization 
 augmentation part        0.1203456 magnetization 

 Broyden mixing:
  rms(total) = 0.21817E-03    rms(broyden)= 0.21817E-03
  rms(prec ) = 0.28987E-03
  weight for this iteration     100.00

 eigenvalues of (default mixing * dielectric matrix)
  average eigenvalue GAMMA=   2.3440
  8.2740  5.3809  3.1971  2.5354  1.9218  1.7467  1.3566  1.3566  0.8451  0.8451
  0.9979  0.9979  1.0174

 Free energy of the ion-electron system (eV)
  ---------------------------------------------------
  alpha Z        PSCENC =         0.06577044
  Ewald energy   TEWEN  =      2286.41994015
  -Hartree energ DENC   =     -3051.95832328
  -exchange      EXHF   =         0.00000000
  -V(xc)+E(xc)   XCENC  =        62.65101913
  PAW double counting   =       949.18773406     -917.87179794
  entropy T*S    EENTRO =        -0.00000000
  eigenvalues    EBANDS =      -362.44823280
  atomic energy  EATOM  =       957.86343653
  Solvation  Ediel_sol  =         0.00000000
  ---------------------------------------------------
  free energy    TOTEN  =       -76.09045370 eV

  energy without entropy =      -76.09045370  energy(sigma->0) =      -76.09045370


--------------------------------------------------------------------------------------------------------




----------------------------------------- Iteration    1(  19)  ---------------------------------------


    POTLOK:  cpu time   18.5029: real time   18.5537
    SETDIJ:  cpu time    0.3018: real time    0.3025
     EDDAV:  cpu time   33.2059: real time   33.3102
       DOS:  cpu time    0.0009: real time    0.0009
    CHARGE:  cpu time    2.9459: real time    2.9578
    MIXING:  cpu time    0.7952: real time    0.7974
    --------------------------------------------
      LOOP:  cpu time   55.7552: real time   55.9274

 eigenvalue-minimisations  :    96
 total energy-change (2. order) :-0.3472922E-03  (-0.6518065E-06)
 number of electron      30.0000000 magnetization 
 augmentation part        0.1203575 magnetization 

 Broyden mixing:
  rms(total) = 0.14506E-03    rms(broyden)= 0.14506E-03
  rms(prec ) = 0.17872E-03
  weight for this iteration     100.00

 eigenvalues of (default mixing * dielectric matrix)
  average eigenvalue GAMMA=   2.3677
  8.5575  5.6660  3.5493  2.4844  2.4844  1.8798  1.4130  1.4130  1.0636  1.0636
  0.8530  0.8530  0.9669  0.9009

 Free energy of the ion-electron system (eV)
  ---------------------------------------------------
  alpha Z        PSCENC =         0.06577044
  Ewald energy   TEWEN  =      2286.41994015
  -Hartree energ DENC   =     -3051.98161024
  -exchange      EXHF   =         0.00000000
  -V(xc)+E(xc)   XCENC  =        62.65056942
  PAW double counting   =       949.38267729     -918.06682179
  entropy T*S    EENTRO =        -0.00000000
  eigenvalues    EBANDS =      -362.42476279
  atomic energy  EATOM  =       957.86343653
  Solvation  Ediel_sol  =         0.00000000
  ---------------------------------------------------
  free energy    TOTEN  =       -76.09080099 eV

  energy without entropy =      -76.09080099  energy(sigma->0) =      -76.09080099


--------------------------------------------------------------------------------------------------------




----------------------------------------- Iteration    1(  20)  ---------------------------------------


    POTLOK:  cpu time   18.4942: real time   18.5446
    SETDIJ:  cpu time    0.3035: real time    0.3045
     EDDAV:  cpu time   24.0121: real time   24.0872
       DOS:  cpu time    0.0008: real time    0.0008
    CHARGE:  cpu time    2.9424: real time    2.9546
    MIXING:  cpu time    0.8248: real time    0.8271
    --------------------------------------------
      LOOP:  cpu time   46.5803: real time   46.7240

 eigenvalue-minimisations  :    64
 total energy-change (2. order) :-0.1430513E-03  (-0.1049760E-06)
 number of electron      30.0000000 magnetization 
 augmentation part        0.1203613 magnetization 

 Broyden mixing:
  rms(total) = 0.84183E-04    rms(broyden)= 0.84183E-04
  rms(prec ) = 0.10391E-03
  weight for this iteration     100.00

 eigenvalues of (default mixing * dielectric matrix)
  average eigenvalue GAMMA=   2.4056
  8.8671  6.0426  4.1431  2.7477  2.3996  1.9343  1.5129  1.4305  1.2730  1.0548
  1.0548  0.8469  0.8469  0.9649  0.9649

 Free energy of the ion-electron system (eV)
  ---------------------------------------------------
  alpha Z        PSCENC =         0.06577044
  Ewald energy   TEWEN  =      2286.41994015
  -Hartree energ DENC   =     -3052.00065996
  -exchange      EXHF   =         0.00000000
  -V(xc)+E(xc)   XCENC  =        62.65080702
  PAW double counting   =       949.19920729     -917.88314509
  entropy T*S    EENTRO =        -0.00000000
  eigenvalues    EBANDS =      -362.40630042
  atomic energy  EATOM  =       957.86343653
  Solvation  Ediel_sol  =         0.00000000
  ---------------------------------------------------
  free energy    TOTEN  =       -76.09094405 eV

  energy without entropy =      -76.09094405  energy(sigma->0) =      -76.09094405


--------------------------------------------------------------------------------------------------------




----------------------------------------- Iteration    1(  21)  ---------------------------------------


    POTLOK:  cpu time   18.4322: real time   18.4825
    SETDIJ:  cpu time    0.2990: real time    0.2997
     EDDAV:  cpu time   26.3254: real time   26.4089
       DOS:  cpu time    0.0009: real time    0.0009
    CHARGE:  cpu time    2.9445: real time    2.9567
    MIXING:  cpu time    0.8538: real time    0.8561
    --------------------------------------------
      LOOP:  cpu time   48.8584: real time   49.0104

 eigenvalue-minimisations  :    72
 total energy-change (2. order) :-0.7634277E-04  (-0.4452354E-07)
 number of electron      30.0000000 magnetization 
 augmentation part        0.1203594 magnetization 

 Broyden mixing:
  rms(total) = 0.38733E-04    rms(broyden)= 0.38733E-04
  rms(prec ) = 0.51032E-04
  weight for this iteration     100.00

 eigenvalues of (default mixing * dielectric matrix)
  average eigenvalue GAMMA=   2.4079
  8.9582  6.2905  4.3905  2.9371  2.4409  2.0759  1.9096  1.3805  1.3805  1.1216
  1.1216  0.8457  0.8457  0.9836  0.9222  0.9222

 Free energy of the ion-electron system (eV)
  ---------------------------------------------------
  alpha Z        PSCENC =         0.06577044
  Ewald energy   TEWEN  =      2286.41994015
  -Hartree energ DENC   =     -3052.01153781
  -exchange      EXHF   =         0.00000000
  -V(xc)+E(xc)   XCENC  =        62.65074524
  PAW double counting   =       949.21828953     -917.90226491
  entropy T*S    EENTRO =        -0.00000000
  eigenvalues    EBANDS =      -362.39539955
  atomic energy  EATOM  =       957.86343653
  Solvation  Ediel_sol  =         0.00000000
  ---------------------------------------------------
  free energy    TOTEN  =       -76.09102039 eV

  energy without entropy =      -76.09102039  energy(sigma->0) =      -76.09102039


--------------------------------------------------------------------------------------------------------




----------------------------------------- Iteration    1(  22)  ---------------------------------------


    POTLOK:  cpu time   18.4188: real time   18.4690
    SETDIJ:  cpu time    0.2992: real time    0.3000
     EDDAV:  cpu time   26.3284: real time   26.4107
       DOS:  cpu time    0.0007: real time    0.0007
    CHARGE:  cpu time    2.9665: real time    2.9785
    MIXING:  cpu time    0.8846: real time    0.8871
    --------------------------------------------
      LOOP:  cpu time   48.9010: real time   49.0516

 eigenvalue-minimisations  :    72
 total energy-change (2. order) :-0.3579358E-04  (-0.1057549E-07)
 number of electron      30.0000000 magnetization 
 augmentation part        0.1203618 magnetization 

 Broyden mixing:
  rms(total) = 0.27434E-04    rms(broyden)= 0.27434E-04
  rms(prec ) = 0.33854E-04
  weight for this iteration     100.00

 eigenvalues of (default mixing * dielectric matrix)
  average eigenvalue GAMMA=   2.4358
  9.1594  6.5509  4.7704  3.2524  2.5119  2.3680  1.9417  1.4731  1.4731  1.1328
  1.1328  1.0156  1.0156  1.0166  0.8479  0.8479  0.8988

 Free energy of the ion-electron system (eV)
  ---------------------------------------------------
  alpha Z        PSCENC =         0.06577044
  Ewald energy   TEWEN  =      2286.41994015
  -Hartree energ DENC   =     -3052.01455163
  -exchange      EXHF   =         0.00000000
  -V(xc)+E(xc)   XCENC  =        62.65073505
  PAW double counting   =       949.15912486     -917.84308004
  entropy T*S    EENTRO =        -0.00000000
  eigenvalues    EBANDS =      -362.39243154
  atomic energy  EATOM  =       957.86343653
  Solvation  Ediel_sol  =         0.00000000
  ---------------------------------------------------
  free energy    TOTEN  =       -76.09105618 eV

  energy without entropy =      -76.09105618  energy(sigma->0) =      -76.09105618


--------------------------------------------------------------------------------------------------------




----------------------------------------- Iteration    1(  23)  ---------------------------------------


    POTLOK:  cpu time   18.4380: real time   18.4880
    SETDIJ:  cpu time    0.2986: real time    0.2993
     EDDAV:  cpu time   24.0231: real time   24.0993
       DOS:  cpu time    0.0009: real time    0.0009
    CHARGE:  cpu time    2.9521: real time    2.9643
    MIXING:  cpu time    0.9193: real time    0.9216
    --------------------------------------------
      LOOP:  cpu time   46.6345: real time   46.7782

 eigenvalue-minimisations  :    64
 total energy-change (2. order) :-0.1885463E-04  (-0.5578130E-08)
 number of electron      30.0000000 magnetization 
 augmentation part        0.1203615 magnetization 

 Broyden mixing:
  rms(total) = 0.19201E-04    rms(broyden)= 0.19201E-04
  rms(prec ) = 0.22205E-04
  weight for this iteration     100.00

 eigenvalues of (default mixing * dielectric matrix)
  average eigenvalue GAMMA=   2.4281
  9.2115  6.7794  4.9580  3.4914  2.6510  2.4096  1.8687  1.7340  1.5665  1.1531
  1.1531  1.0914  1.0914  0.9992  0.8469  0.8469  0.9264  0.9264

 Free energy of the ion-electron system (eV)
  ---------------------------------------------------
  alpha Z        PSCENC =         0.06577044
  Ewald energy   TEWEN  =      2286.41994015
  -Hartree energ DENC   =     -3052.01571751
  -exchange      EXHF   =         0.00000000
  -V(xc)+E(xc)   XCENC  =        62.65071365
  PAW double counting   =       949.13552404     -917.81947280
  entropy T*S    EENTRO =        -0.00000000
  eigenvalues    EBANDS =      -362.39126953
  atomic energy  EATOM  =       957.86343653
  Solvation  Ediel_sol  =         0.00000000
  ---------------------------------------------------
  free energy    TOTEN  =       -76.09107504 eV

  energy without entropy =      -76.09107504  energy(sigma->0) =      -76.09107504


--------------------------------------------------------------------------------------------------------




----------------------------------------- Iteration    1(  24)  ---------------------------------------


    POTLOK:  cpu time   18.4331: real time   18.4837
    SETDIJ:  cpu time    0.2988: real time    0.2995
     EDDAV:  cpu time   26.3397: real time   26.4225
       DOS:  cpu time    0.0009: real time    0.0009
    CHARGE:  cpu time    2.9440: real time    2.9564
    MIXING:  cpu time    0.9530: real time    0.9556
    --------------------------------------------
      LOOP:  cpu time   48.9721: real time   49.1238

 eigenvalue-minimisations  :    72
 total energy-change (2. order) :-0.7546413E-05  (-0.3003345E-08)
 number of electron      30.0000000 magnetization 
 augmentation part        0.1203636 magnetization 

 Broyden mixing:
  rms(total) = 0.89721E-05    rms(broyden)= 0.89720E-05
  rms(prec ) = 0.11129E-04
  weight for this iteration     100.00

 eigenvalues of (default mixing * dielectric matrix)
  average eigenvalue GAMMA=   2.4239
  9.2915  6.9796  5.1877  3.7833  2.7366  2.4225  1.8902  1.8902  1.5982  1.3270
  1.3270  1.0388  1.0388  1.0924  0.9657  0.9657  0.8458  0.8458  0.8265

 Free energy of the ion-electron system (eV)
  ---------------------------------------------------
  alpha Z        PSCENC =         0.06577044
  Ewald energy   TEWEN  =      2286.41994015
  -Hartree energ DENC   =     -3052.01537188
  -exchange      EXHF   =         0.00000000
  -V(xc)+E(xc)   XCENC  =        62.65068797
  PAW double counting   =       949.13742767     -917.82137331
  entropy T*S    EENTRO =        -0.00000000
  eigenvalues    EBANDS =      -362.39160015
  atomic energy  EATOM  =       957.86343653
  Solvation  Ediel_sol  =         0.00000000
  ---------------------------------------------------
  free energy    TOTEN  =       -76.09108258 eV

  energy without entropy =      -76.09108258  energy(sigma->0) =      -76.09108258


--------------------------------------------------------------------------------------------------------




----------------------------------------- Iteration    1(  25)  ---------------------------------------


    POTLOK:  cpu time   18.4474: real time   18.4977
    SETDIJ:  cpu time    0.2993: real time    0.3001
     EDDAV:  cpu time   26.3326: real time   26.4154
       DOS:  cpu time    0.0008: real time    0.0008
    CHARGE:  cpu time    2.9481: real time    2.9601
    MIXING:  cpu time    0.9839: real time    0.9866
    --------------------------------------------
      LOOP:  cpu time   49.0146: real time   49.1659

 eigenvalue-minimisations  :    72
 total energy-change (2. order) :-0.3833837E-05  (-0.2091960E-08)
 number of electron      30.0000000 magnetization 
 augmentation part        0.1203636 magnetization 

 Broyden mixing:
  rms(total) = 0.49361E-05    rms(broyden)= 0.49361E-05
  rms(prec ) = 0.64080E-05
  weight for this iteration     100.00

 eigenvalues of (default mixing * dielectric matrix)
  average eigenvalue GAMMA=   2.4546
  9.3818  7.2463  5.5007  4.1537  2.9442  2.4785  2.3828  1.8557  1.5652  1.5652
  1.2322  1.2322  1.0788  1.0788  0.9749  0.9551  0.9551  0.8470  0.8470  0.8167

 Free energy of the ion-electron system (eV)
  ---------------------------------------------------
  alpha Z        PSCENC =         0.06577044
  Ewald energy   TEWEN  =      2286.41994015
  -Hartree energ DENC   =     -3052.01533801
  -exchange      EXHF   =         0.00000000
  -V(xc)+E(xc)   XCENC  =        62.65067159
  PAW double counting   =       949.15616240     -917.84011725
  entropy T*S    EENTRO =        -0.00000000
  eigenvalues    EBANDS =      -362.39161225
  atomic energy  EATOM  =       957.86343653
  Solvation  Ediel_sol  =         0.00000000
  ---------------------------------------------------
  free energy    TOTEN  =       -76.09108642 eV

  energy without entropy =      -76.09108642  energy(sigma->0) =      -76.09108642


--------------------------------------------------------------------------------------------------------




----------------------------------------- Iteration    1(  26)  ---------------------------------------


    POTLOK:  cpu time   18.4612: real time   18.5116
    SETDIJ:  cpu time    0.2995: real time    0.3005
     EDDAV:  cpu time   24.0181: real time   24.0938
       DOS:  cpu time    0.0009: real time    0.0009
    CHARGE:  cpu time    2.9571: real time    2.9690
    MIXING:  cpu time    1.0179: real time    1.0207
    --------------------------------------------
      LOOP:  cpu time   46.7572: real time   46.9017

 eigenvalue-minimisations  :    64
 total energy-change (2. order) :-0.2485525E-05  (-0.2037078E-08)
 number of electron      30.0000000 magnetization 
 augmentation part        0.1203647 magnetization 

 Broyden mixing:
  rms(total) = 0.34204E-05    rms(broyden)= 0.34204E-05
  rms(prec ) = 0.40870E-05
  weight for this iteration     100.00

 eigenvalues of (default mixing * dielectric matrix)
  average eigenvalue GAMMA=   2.4535
  9.4268  7.4531  5.6881  4.4330  3.1679  2.5779  2.3684  1.8664  1.6429  1.6429
  1.3094  1.3094  1.0972  1.0972  1.1112  0.8475  0.8475  0.9765  0.9765  0.9263
  0.7572

 Free energy of the ion-electron system (eV)
  ---------------------------------------------------
  alpha Z        PSCENC =         0.06577044
  Ewald energy   TEWEN  =      2286.41994015
  -Hartree energ DENC   =     -3052.01550415
  -exchange      EXHF   =         0.00000000
  -V(xc)+E(xc)   XCENC  =        62.65066671
  PAW double counting   =       949.17504713     -917.85901077
  entropy T*S    EENTRO =        -0.00000000
  eigenvalues    EBANDS =      -362.39143494
  atomic energy  EATOM  =       957.86343653
  Solvation  Ediel_sol  =         0.00000000
  ---------------------------------------------------
  free energy    TOTEN  =       -76.09108890 eV

  energy without entropy =      -76.09108890  energy(sigma->0) =      -76.09108890


--------------------------------------------------------------------------------------------------------




----------------------------------------- Iteration    1(  27)  ---------------------------------------


    POTLOK:  cpu time   18.4684: real time   18.5187
    SETDIJ:  cpu time    0.2999: real time    0.3006
     EDDAV:  cpu time   26.3253: real time   26.4089
       DOS:  cpu time    0.0011: real time    0.0011
    CHARGE:  cpu time    2.9478: real time    2.9599
    MIXING:  cpu time    1.0539: real time    1.0568
    --------------------------------------------
      LOOP:  cpu time   49.0989: real time   49.2512

 eigenvalue-minimisations  :    72
 total energy-change (2. order) :-0.9530115E-06  (-0.1715911E-08)
 number of electron      30.0000000 magnetization 
 augmentation part        0.1203647 magnetization 

 Broyden mixing:
  rms(total) = 0.19710E-05    rms(broyden)= 0.19710E-05
  rms(prec ) = 0.23734E-05
  weight for this iteration     100.00

 eigenvalues of (default mixing * dielectric matrix)
  average eigenvalue GAMMA=   2.4801
  9.4633  7.6677  5.8892  4.6694  3.4304  2.6317  2.6317  2.2075  1.9194  1.4686
  1.4686  1.3230  1.3230  1.0852  1.0852  0.8474  0.8474  0.9665  0.9665  0.9891
  0.9543  0.7272

 Free energy of the ion-electron system (eV)
  ---------------------------------------------------
  alpha Z        PSCENC =         0.06577044
  Ewald energy   TEWEN  =      2286.41994015
  -Hartree energ DENC   =     -3052.01556044
  -exchange      EXHF   =         0.00000000
  -V(xc)+E(xc)   XCENC  =        62.65066359
  PAW double counting   =       949.18291961     -917.86688834
  entropy T*S    EENTRO =        -0.00000000
  eigenvalues    EBANDS =      -362.39137138
  atomic energy  EATOM  =       957.86343653
  Solvation  Ediel_sol  =         0.00000000
  ---------------------------------------------------
  free energy    TOTEN  =       -76.09108986 eV

  energy without entropy =      -76.09108986  energy(sigma->0) =      -76.09108986


--------------------------------------------------------------------------------------------------------




----------------------------------------- Iteration    1(  28)  ---------------------------------------


    POTLOK:  cpu time   18.4067: real time   18.4568
    SETDIJ:  cpu time    0.3008: real time    0.3018
     EDDAV:  cpu time   24.0339: real time   24.1091
       DOS:  cpu time    0.0009: real time    0.0009
    CHARGE:  cpu time    2.9475: real time    2.9594
    MIXING:  cpu time    1.0909: real time    1.0938
    --------------------------------------------
      LOOP:  cpu time   46.7831: real time   46.9984

 eigenvalue-minimisations  :    64
 total energy-change (2. order) :-0.6007431E-06  (-0.1307523E-08)
 number of electron      30.0000000 magnetization 
 augmentation part        0.1203656 magnetization 

 Broyden mixing:
  rms(total) = 0.10674E-05    rms(broyden)= 0.10674E-05
  rms(prec ) = 0.12577E-05
  weight for this iteration     100.00

 eigenvalues of (default mixing * dielectric matrix)
  average eigenvalue GAMMA=   2.4926
  9.5119  7.8807  6.1569  4.9408  3.8217  2.7236  2.7052  2.3154  1.8950  1.6776
  1.5299  1.2671  1.2671  1.1680  1.0994  1.0994  1.0409  0.8471  0.8471  0.9773
  0.9267  0.9267  0.7051

 Free energy of the ion-electron system (eV)
  ---------------------------------------------------
  alpha Z        PSCENC =         0.06577044
  Ewald energy   TEWEN  =      2286.41994015
  -Hartree energ DENC   =     -3052.01575948
  -exchange      EXHF   =         0.00000000
  -V(xc)+E(xc)   XCENC  =        62.65066709
  PAW double counting   =       949.18194042     -917.86590862
  entropy T*S    EENTRO =        -0.00000000
  eigenvalues    EBANDS =      -362.39117698
  atomic energy  EATOM  =       957.86343653
  Solvation  Ediel_sol  =         0.00000000
  ---------------------------------------------------
  free energy    TOTEN  =       -76.09109046 eV

  energy without entropy =      -76.09109046  energy(sigma->0) =      -76.09109046


--------------------------------------------------------------------------------------------------------




----------------------------------------- Iteration    1(  29)  ---------------------------------------


    POTLOK:  cpu time   18.3703: real time   18.4202
    SETDIJ:  cpu time    0.2987: real time    0.2998
     EDDAV:  cpu time   19.4339: real time   19.4950
       DOS:  cpu time    0.0006: real time    0.0006
    CHARGE:  cpu time    2.9392: real time    2.9512
    MIXING:  cpu time    1.1293: real time    1.1323
    --------------------------------------------
      LOOP:  cpu time   42.1747: real time   42.3040

 eigenvalue-minimisations  :    48
 total energy-change (2. order) :-0.1811941E-06  (-0.8116032E-09)
 number of electron      30.0000000 magnetization 
 augmentation part        0.1203656 magnetization 

 Broyden mixing:
  rms(total) = 0.90495E-06    rms(broyden)= 0.90494E-06
  rms(prec ) = 0.99720E-06
  weight for this iteration     100.00

 eigenvalues of (default mixing * dielectric matrix)
  average eigenvalue GAMMA=   2.4450
  9.5180  7.9575  6.2273  5.0147  3.8792  2.8240  2.6458  2.3312  1.8993  1.7533
  1.4774  1.2947  1.2947  1.1777  1.1777  1.0792  1.0792  1.0082  0.9283  0.9283
  0.8467  0.8467  0.8278  0.6634

 Free energy of the ion-electron system (eV)
  ---------------------------------------------------
  alpha Z        PSCENC =         0.06577044
  Ewald energy   TEWEN  =      2286.41994015
  -Hartree energ DENC   =     -3052.01578381
  -exchange      EXHF   =         0.00000000
  -V(xc)+E(xc)   XCENC  =        62.65066688
  PAW double counting   =       949.18104848     -917.86501601
  entropy T*S    EENTRO =        -0.00000000
  eigenvalues    EBANDS =      -362.39115330
  atomic energy  EATOM  =       957.86343653
  Solvation  Ediel_sol  =         0.00000000
  ---------------------------------------------------
  free energy    TOTEN  =       -76.09109064 eV

  energy without entropy =      -76.09109064  energy(sigma->0) =      -76.09109064


--------------------------------------------------------------------------------------------------------




----------------------------------------- Iteration    1(  30)  ---------------------------------------


    POTLOK:  cpu time   18.3924: real time   18.4429
    SETDIJ:  cpu time    0.3003: real time    0.3011
     EDDAV:  cpu time   19.4244: real time   19.4855
       DOS:  cpu time    0.0008: real time    0.0008
    --------------------------------------------
      LOOP:  cpu time   38.1205: real time   38.2356

 eigenvalue-minimisations  :    48
 total energy-change (2. order) :-0.6771916E-07  (-0.6209007E-09)
 number of electron      30.0000000 magnetization 
 augmentation part        0.1203656 magnetization 

 Free energy of the ion-electron system (eV)
  ---------------------------------------------------
  alpha Z        PSCENC =         0.06577044
  Ewald energy   TEWEN  =      2286.41994015
  -Hartree energ DENC   =     -3052.01576481
  -exchange      EXHF   =         0.00000000
  -V(xc)+E(xc)   XCENC  =        62.65066610
  PAW double counting   =       949.18102636     -917.86499365
  entropy T*S    EENTRO =        -0.00000000
  eigenvalues    EBANDS =      -362.39117182
  atomic energy  EATOM  =       957.86343653
  Solvation  Ediel_sol  =         0.00000000
  ---------------------------------------------------
  free energy    TOTEN  =       -76.09109070 eV

  energy without entropy =      -76.09109070  energy(sigma->0) =      -76.09109070


--------------------------------------------------------------------------------------------------------




 average (electrostatic) potential at core
  the test charge radii are     0.5412  0.5531
  (the norm of the test charge is              1.0000)
       1-113.3949       2-113.3950       3-113.3978       4-113.4013       5-113.4022
       6-113.3980       7 -41.0511       8 -41.0563       9 -41.0492      10 -41.0487
      11 -41.0433      12 -41.0569
 
 
 
 E-fermi :  -6.2191     XC(G=0):  -0.0489     alpha+bet : -0.0186


 k-point     1 :       0.0000    0.0000    0.0000
  band No.  band energies     occupation 
      1     -21.2160      2.00000
      2     -18.4296      2.00000
      3     -18.4260      2.00000
      4     -14.8171      2.00000
      5     -14.8158      2.00000
      6     -12.8976      2.00000
      7     -11.1904      2.00000
      8     -10.8723      2.00000
      9     -10.2115      2.00000
     10     -10.2062      2.00000
     11      -9.0603      2.00000
     12      -8.2077      2.00000
     13      -8.2043      2.00000
     14      -6.3219      2.00000
     15      -6.3187      2.00000
     16      -1.1986      0.00000
     17      -1.1973      0.00000
     18      -0.4989      0.00000
     19      -0.0299      0.00000
     20      -0.0297      0.00000
     21       0.0136      0.00000
     22       0.1128      0.00000
     23       0.1229      0.00000
     24       0.1294      0.00000


--------------------------------------------------------------------------------------------------------


 soft charge-density along one line, spin component           1
         0         1         2         3         4         5         6         7         8         9
 total charge-density along one line
 
 pseudopotential strength for first ion, spin component:           1
 10.601  -0.055   0.063   0.000   0.000   0.000  -0.002  -0.001
 -0.055  -0.072   0.661  -0.000  -0.000  -0.000  -0.001  -0.000
  0.063   0.661   0.207   0.000   0.000   0.000  -0.000  -0.000
  0.000  -0.000   0.000  -3.668   0.003   0.000   0.096   0.003
  0.000  -0.000   0.000   0.003  -3.672  -0.000   0.003   0.093
  0.000  -0.000   0.000   0.000  -0.000  -3.666   0.000  -0.000
 -0.002  -0.001  -0.000   0.096   0.003   0.000  26.404   0.007
 -0.001  -0.000  -0.000   0.003   0.093  -0.000   0.007  26.396
 -0.000  -0.000  -0.000   0.000  -0.000   0.097   0.000  -0.001
  0.000   0.000   0.000  -0.049   0.001   0.000 -17.736  -0.002
  0.000   0.000   0.000   0.001  -0.050  -0.000  -0.002 -17.734
  0.000   0.000   0.000   0.000  -0.000  -0.048  -0.000   0.000
  0.000   0.000   0.000   0.000   0.000  -0.002   0.001   0.001
  0.006   0.002   0.000   0.001  -0.001   0.000   0.004   0.001
 -0.005  -0.001  -0.000   0.001  -0.001   0.000   0.003  -0.000
 -0.001  -0.000  -0.000   0.000   0.000  -0.001   0.001   0.001
  0.002   0.001   0.000  -0.000  -0.001  -0.000  -0.007  -0.005
 -0.000  -0.000  -0.000  -0.000  -0.000   0.003  -0.001  -0.001
 -0.004  -0.002  -0.000  -0.001  -0.000  -0.000  -0.002   0.000
  0.003   0.001   0.000  -0.001   0.001  -0.000  -0.002   0.001
  0.001   0.000   0.000  -0.000  -0.000   0.002  -0.001  -0.001
 -0.002  -0.001  -0.000   0.001   0.001   0.001   0.003   0.003
 total augmentation occupancy for first ion, spin component:           1
  1.479   0.014   0.310  -0.015  -0.008  -0.001  -0.003  -0.002  -0.000  -0.001  -0.001  -0.000   0.001   0.020  -0.017  -0.003
  0.014   0.001   0.004  -0.001  -0.001  -0.000  -0.000  -0.000  -0.000  -0.000  -0.000  -0.000   0.000   0.000  -0.000  -0.000
  0.310   0.004   0.067  -0.016  -0.010  -0.002  -0.001  -0.001  -0.000  -0.001  -0.000  -0.000   0.000   0.004  -0.004  -0.001
 -0.015  -0.001  -0.016   1.105   0.130   0.009   0.039   0.011   0.001   0.019   0.005   0.000   0.004   0.015   0.013   0.006
 -0.008  -0.001  -0.010   0.130   0.967  -0.020   0.011   0.028  -0.002   0.005   0.013  -0.001   0.005   0.002  -0.003   0.004
 -0.001  -0.000  -0.002   0.009  -0.020   1.220   0.001  -0.002   0.050   0.000  -0.001   0.024  -0.036   0.005   0.004  -0.021
 -0.003  -0.000  -0.001   0.039   0.011   0.001   0.002   0.001   0.000   0.001   0.000   0.000   0.000   0.000   0.000   0.000
 -0.002  -0.000  -0.001   0.011   0.028  -0.002   0.001   0.001  -0.000   0.000   0.000  -0.000   0.000   0.000  -0.000   0.000
 -0.000  -0.000  -0.000   0.001  -0.002   0.050   0.000  -0.000   0.002   0.000  -0.000   0.001  -0.002   0.000   0.000  -0.001
 -0.001  -0.000  -0.001   0.019   0.005   0.000   0.001   0.000   0.000   0.000   0.000   0.000   0.000   0.000   0.000   0.000
 -0.001  -0.000  -0.000   0.005   0.013  -0.001   0.000   0.000  -0.000   0.000   0.000  -0.000   0.000   0.000  -0.000   0.000
 -0.000  -0.000  -0.000   0.000  -0.001   0.024   0.000  -0.000   0.001   0.000  -0.000   0.001  -0.001   0.000   0.000  -0.000
  0.001   0.000   0.000   0.004   0.005  -0.036   0.000   0.000  -0.002   0.000   0.000  -0.001   0.002  -0.000  -0.000   0.001
  0.020   0.000   0.004   0.015   0.002   0.005   0.000   0.000   0.000   0.000   0.000   0.000  -0.000   0.001   0.000  -0.000
 -0.017  -0.000  -0.004   0.013  -0.003   0.004   0.000  -0.000   0.000   0.000  -0.000   0.000  -0.000   0.000   0.000  -0.000
 -0.003  -0.000  -0.001   0.006   0.004  -0.021   0.000   0.000  -0.001   0.000   0.000  -0.000   0.001  -0.000  -0.000   0.001
  0.009   0.000   0.002  -0.025  -0.021  -0.007  -0.001  -0.001  -0.000  -0.000  -0.000  -0.000  -0.000  -0.001  -0.001  -0.000
 -0.001  -0.000  -0.000  -0.003  -0.004   0.029  -0.000  -0.000   0.001  -0.000  -0.000   0.001  -0.001   0.000   0.000  -0.000
 -0.016  -0.000  -0.003  -0.012  -0.002  -0.004  -0.000  -0.000  -0.000  -0.000  -0.000  -0.000   0.000  -0.001  -0.000   0.000
  0.014   0.000   0.003  -0.010   0.002  -0.003  -0.000   0.000  -0.000  -0.000   0.000  -0.000   0.000  -0.000  -0.000   0.000
  0.002   0.000   0.001  -0.004  -0.003   0.017  -0.000  -0.000   0.001  -0.000  -0.000   0.000  -0.000   0.000   0.000  -0.001
 -0.007  -0.000  -0.002   0.019   0.016   0.006   0.001   0.001   0.000   0.000   0.000   0.000   0.000   0.000   0.000   0.000


------------------------ aborting loop because EDIFF is reached ----------------------------------------


    CHARGE:  cpu time    2.9518: real time    2.9639
    FORLOC:  cpu time    2.0004: real time    2.0059
    FORNL :  cpu time    4.5281: real time    4.5406
    STRESS:  cpu time   18.5559: real time   18.6069
    FORCOR:  cpu time   18.1990: real time   18.2487
    FORHAR:  cpu time    6.1899: real time    6.2068
    MIXING:  cpu time    1.1807: real time    1.1839
    OFIELD:  cpu time    0.0000: real time    0.0000

  FORCE on cell =-STRESS in cart. coord.  units (eV):
  Direction    XX          YY          ZZ          XY          YZ          ZX
  --------------------------------------------------------------------------------------
  Alpha Z     0.06577     0.06577     0.06577
  Ewald    1225.41538   865.76185   195.24189    45.88794   613.15759   -76.99775
  Hartree  1284.68405  1077.29929   690.03238    26.29378   352.74596   -44.22348
  E(xc)    -115.21064  -115.92272  -117.24236     0.09198     1.21653    -0.15360
  Local   -2866.96201 -2313.43626 -1280.64584   -70.40744  -942.77088   118.29639
  n-local    -3.03175    -2.61335    -1.85906    -0.05366    -0.70985     0.09337
  augment     1.58081     1.66018     1.80763    -0.01040    -0.13588     0.01706
  Kinetic   474.97914   488.33879   513.01347    -1.75409   -22.81216     2.87963
  Fock        0.00000     0.00000     0.00000     0.00000     0.00000     0.00000
  -------------------------------------------------------------------------------------
  Total       1.52076     1.15354     0.41390     0.04811     0.69130    -0.08839
  in kB       0.05683     0.04311     0.01547     0.00180     0.02583    -0.00330
  external pressure =        0.04 kB  Pullay stress =        0.00 kB


 VOLUME and BASIS-vectors are now :
 -----------------------------------------------------------------------------
  energy-cutoff  :     2000.00
  volume of cell :    42875.00
      direct lattice vectors                 reciprocal lattice vectors
    35.000000000  0.000000000  0.000000000     0.028571429  0.000000000  0.000000000
     0.000000000 35.000000000  0.000000000     0.000000000  0.028571429  0.000000000
     0.000000000  0.000000000 35.000000000     0.000000000  0.000000000  0.028571429

  length of vectors
    35.000000000 35.000000000 35.000000000     0.028571429  0.028571429  0.028571429


 FORCES acting on ions
    electron-ion (+dipol)            ewald-force                    non-local-force                 convergence-correction
 -----------------------------------------------------------------------------------------------
   -.135E+02 -.155E+03 -.914E+02   0.135E+02 0.155E+03 0.913E+02   0.156E-01 0.137E+00 0.208E-01   0.181E-05 -.145E-05 -.101E-05
   0.149E+03 -.835E+02 -.591E+02   -.149E+03 0.833E+02 0.590E+02   -.790E-01 0.326E-01 0.656E-01   0.142E-05 0.847E-07 0.585E-07
   0.163E+03 0.727E+02 0.315E+02   -.162E+03 -.726E+02 -.314E+02   -.108E+00 -.654E-01 -.376E-01   0.286E-05 0.326E-06 0.226E-06
   0.133E+02 0.156E+03 0.904E+02   -.133E+02 -.156E+03 -.903E+02   0.118E-01 -.729E-01 -.699E-01   0.219E-05 0.171E-05 0.930E-06
   -.149E+03 0.831E+02 0.598E+02   0.149E+03 -.830E+02 -.598E+02   0.966E-01 -.529E-01 -.785E-01   -.110E-05 0.172E-05 0.120E-05
   -.163E+03 -.731E+02 -.304E+02   0.162E+03 0.730E+02 0.304E+02   0.700E-01 0.188E-01 0.549E-01   -.185E-05 -.205E-05 -.846E-06
   -.608E+01 -.694E+02 -.415E+02   0.654E+01 0.747E+02 0.447E+02   -.441E+00 -.502E+01 -.302E+01   -.519E-08 -.107E-05 -.633E-06
   0.668E+02 -.369E+02 -.273E+02   -.719E+02 0.398E+02 0.294E+02   0.484E+01 -.267E+01 -.200E+01   0.104E-05 -.428E-06 -.294E-06
   0.729E+02 0.327E+02 0.139E+02   -.784E+02 -.351E+02 -.149E+02   0.528E+01 0.237E+01 0.999E+00   0.838E-06 0.272E-06 0.144E-06
   0.607E+01 0.696E+02 0.410E+02   -.653E+01 -.749E+02 -.441E+02   0.442E+00 0.504E+01 0.298E+01   0.244E-06 0.119E-05 0.691E-06
   -.668E+02 0.368E+02 0.274E+02   0.718E+02 -.396E+02 -.295E+02   -.483E+01 0.265E+01 0.200E+01   -.126E-05 0.836E-06 0.620E-06
   -.728E+02 -.327E+02 -.141E+02   0.784E+02 0.352E+02 0.152E+02   -.528E+01 -.237E+01 -.104E+01   -.142E-05 -.740E-06 -.262E-06
 -----------------------------------------------------------------------------------------------
   -.227E-01 0.141E-01 0.125E+00   0.426E-13 -.639E-13 0.338E-13   0.226E-01 -.142E-01 -.125E+00   0.476E-05 0.409E-06 0.823E-06
 
 
 POSITION                                       TOTAL-FORCE (eV/Angst)
 -----------------------------------------------------------------------------------
     34.97893      1.53186     33.63606         0.001652     -0.130173     -0.083605
     33.72532      0.97410     33.39259         0.155695     -0.103513     -0.011518
     33.62170     34.77430     32.69158         0.142597      0.038035      0.020168
     34.77106     34.13360     32.23121         0.028422      0.174277      0.058595
      1.02479     34.69648     32.46876        -0.128917      0.071317      0.007354
      1.12900      0.89668     33.17002        -0.185308     -0.090806     -0.001067
      0.06007      2.45656     34.19060         0.022691      0.281290      0.147108
     32.83490      1.46545     33.75943        -0.266912      0.153524      0.090268
     32.64903     34.33839     32.50733        -0.271399     -0.121687     -0.057063
     34.68966     33.20442     31.68273        -0.017931     -0.253493     -0.135204
      1.91658     34.20592     32.10061         0.230760     -0.139690     -0.076359
      2.10003      1.33268     33.35996         0.288650      0.120920      0.041322
 -----------------------------------------------------------------------------------
    total drift:                               -0.000041     -0.000119     -0.000070


--------------------------------------------------------------------------------------------------------



  FREE ENERGIE OF THE ION-ELECTRON SYSTEM (eV)
  ---------------------------------------------------
  free  energy   TOTEN  =       -76.09109070 eV

  energy  without entropy=      -76.09109070  energy(sigma->0) =      -76.09109070
 


--------------------------------------------------------------------------------------------------------


    POTLOK:  cpu time   18.7888: real time   18.8403


--------------------------------------------------------------------------------------------------------


 writing wavefunctions
     LOOP+:  cpu time 2135.9803: real time 2142.4521
    4ORBIT:  cpu time    0.0000: real time    0.0000

 total amount of memory used by VASP on root node  4407419. kBytes
========================================================================

   base      :      30000. kBytes
   nonl-proj :     296064. kBytes
   fftplans  :    1475802. kBytes
   grid      :    2553282. kBytes
   one-center:         23. kBytes
   wavefun   :      52248. kBytes
 
  
  
 General timing and accounting informations for this job:
 ========================================================
  
                  Total CPU time used (sec):     3062.711
                            User time (sec):     2789.298
                          System time (sec):      273.413
                         Elapsed time (sec):     3072.006
  
                   Maximum memory used (kb):     5855124.
                   Average memory used (kb):           0.
  
                          Minor page faults:       227646
                          Major page faults:            5
                 Voluntary context switches:        37821
 
 PROFILE, used timers:      14
 =============================
 
 index                 routine                    time                            calls level
----------------------------------------------------------------------------------------------
    1    total_time                         3072.007623                                1   1
    2      w1_copy                               4.425995                           2214   2
    3      fftwav_mpi                          205.774782                            846   2
    4      fftext_mpi                            1.005093                              6   2
    5      overl                                 0.002105                           1293   2
    6      orth1                                 6.287131                           1105   2
    7      lincom                                0.349986                             31   2
    8      eccp                                  8.260560                            180   2
    9      hamiltmu                            405.426998                            368   2
   10        vhamil                               43.906666                          736   3
   11        overl1                                0.001424                          736   3
   12        kinhamil                            186.405683                          736   3
   13          fftext_mpi                          184.983284                        736   4
   14      pdssyex_zheevx                        0.059584                             30   2
 
 Flat profile
 ============
 
             routine name                   CPU           calls
 ---------------------------------------------------------------
 total_time                           2440.415389           1
 fftwav_mpi                            205.774782         846
 fftext_mpi                            185.988377         742
 hamiltmu                              175.113224         368
 vhamil                                 43.906666         736
 eccp                                    8.260560         180
 orth1                                   6.287131        1105
 w1_copy                                 4.425995        2214
 kinhamil                                1.422399         736
 lincom                                  0.349986          31
 pdssyex_zheevx                          0.059584          30
 overl                                   0.002105        1293
 overl1                                  0.001424         736
 ---------------------------------------------------------------
  summed up times    3072.00762295723     
 
Profiling took   0.008173  0.004614  0.003190  0.003180 seconds
Profiling took   0.004654 seconds
