 vasp.5.4.1 24Jun15 (build Jan 02 2020 16:21:29) gamma-only                     
  
 executed on           IFC15_impi date 2020.07.01  10:40:51
 running on   12 total cores
 distrk:  each k-point on   12 cores,    1 groups
 distr:  one band on NCORES_PER_BAND=  12 cores,    1 groups


--------------------------------------------------------------------------------------------------------


 INCAR:
 POTCAR:    PAW_PBE O 08Apr2002                   
 POTCAR:    PAW_PBE H 15Jun2001                   

 ----------------------------------------------------------------------------- 
|                                                                             |
|           W    W    AA    RRRRR   N    N  II  N    N   GGGG   !!!           |
|           W    W   A  A   R    R  NN   N  II  NN   N  G    G  !!!           |
|           W    W  A    A  R    R  N N  N  II  N N  N  G       !!!           |
|           W WW W  AAAAAA  RRRRR   N  N N  II  N  N N  G  GGG   !            |
|           WW  WW  A    A  R   R   N   NN  II  N   NN  G    G                |
|           W    W  A    A  R    R  N    N  II  N    N   GGGG   !!!           |
|                                                                             |
|      For optimal performance we recommend to set                            |
|        NCORE= 4 - approx SQRT( number of cores)                             |
|      NCORE specifies how many cores store one orbital (NPAR=cpu/NCORE).     |
|      This setting can  greatly improve the performance of VASP for DFT.     |
|      The default, NPAR=number of cores might be grossly inefficient         |
|      on modern multi-core architectures or massively parallel machines.     |
|      Do your own testing !!!!                                               |
|      Unfortunately you need to use the default for GW and RPA calculations. |
|      (for HF NCORE is supported but not extensively tested yet)             |
|                                                                             |
 ----------------------------------------------------------------------------- 

 POTCAR:    PAW_PBE O 08Apr2002                   
   VRHFIN =O: s2p4                                                              
   LEXCH  = PE                                                                  
   EATOM  =   432.3788 eV,   31.7789 Ry                                         
                                                                                
   TITEL  = PAW_PBE O 08Apr2002                                                 
   LULTRA =        F    use ultrasoft PP ?                                      
   IUNSCR =        1    unscreen: 0-lin 1-nonlin 2-no                           
   RPACOR =    1.200    partial core radius                                     
   POMASS =   16.000; ZVAL   =    6.000    mass and valenz                      
   RCORE  =    1.520    outmost cutoff radius                                   
   RWIGS  =    1.550; RWIGS  =    0.820    wigner-seitz radius (au A)           
   ENMAX  =  400.000; ENMIN  =  300.000 eV                                      
   ICORE  =        2    local potential                                         
   LCOR   =        T    correct aug charges                                     
   LPAW   =        T    paw PP                                                  
   EAUG   =  605.392                                                            
   DEXC   =    0.000                                                            
   RMAX   =    1.553    core radius for proj-oper                               
   RAUG   =    1.300    factor for augmentation sphere                          
   RDEP   =    1.550    radius for radial grids                                 
   RDEPT  =    1.329    core radius for aug-charge                              
                                                                                
   Atomic configuration                                                         
    4 entries                                                                   
     n  l   j            E        occ.                                          
     1  0  0.50      -514.6923   2.0000                                         
     2  0  0.50       -23.9615   2.0000                                         
     2  1  0.50        -9.0305   4.0000                                         
     3  2  1.50        -9.5241   0.0000                                         
   Description                                                                  
     l       E           TYP  RCUT    TYP  RCUT                                 
     0    -23.9615318     23  1.200                                             
     0     -9.5240782     23  1.200                                             
     1     -9.0304911     23  1.520                                             
     1      8.1634956     23  1.520                                             
     2     -9.5240782      7  1.500                                             
  local pseudopotential read in
  partial core-charges read in
  partial kinetic energy density read in
  kinetic energy density of atom read in
  atomic valenz-charges read in
  non local Contribution for L=           0  read in
    real space projection operators read in
  non local Contribution for L=           0  read in
    real space projection operators read in
  non local Contribution for L=           1  read in
    real space projection operators read in
  non local Contribution for L=           1  read in
    real space projection operators read in
    PAW grid and wavefunctions read in
 
   number of l-projection  operators is LMAX  =           4
   number of lm-projection operators is LMMAX =           8
 
 POTCAR:    PAW_PBE H 15Jun2001                   
   VRHFIN =H: ultrasoft test                                                    
   LEXCH  = PE                                                                  
   EATOM  =    12.4884 eV,    0.9179 Ry                                         
                                                                                
   TITEL  = PAW_PBE H 15Jun2001                                                 
   LULTRA =        F    use ultrasoft PP ?                                      
   IUNSCR =        0    unscreen: 0-lin 1-nonlin 2-no                           
   RPACOR =    0.000    partial core radius                                     
   POMASS =    1.000; ZVAL   =    1.000    mass and valenz                      
   RCORE  =    1.100    outmost cutoff radius                                   
   RWIGS  =    0.700; RWIGS  =    0.370    wigner-seitz radius (au A)           
   ENMAX  =  250.000; ENMIN  =  200.000 eV                                      
   RCLOC  =    0.701    cutoff for local pot                                    
   LCOR   =        T    correct aug charges                                     
   LPAW   =        T    paw PP                                                  
   EAUG   =  400.000                                                            
   RMAX   =    1.123    core radius for proj-oper                               
   RAUG   =    1.200    factor for augmentation sphere                          
   RDEP   =    1.112    radius for radial grids                                 
   RDEPT  =    0.926    core radius for aug-charge                              
                                                                                
   Atomic configuration                                                         
    2 entries                                                                   
     n  l   j            E        occ.                                          
     1  0  0.50        -6.4927   1.0000                                         
     2  1  0.50        -3.4015   0.0000                                         
   Description                                                                  
     l       E           TYP  RCUT    TYP  RCUT                                 
     0     -6.4927494     23  1.100                                             
     0      6.8029130     23  1.100                                             
     1     -4.0817478     23  1.100                                             
  local pseudopotential read in
  atomic valenz-charges read in
  non local Contribution for L=           0  read in
    real space projection operators read in
  non local Contribution for L=           0  read in
    real space projection operators read in
  non local Contribution for L=           1  read in
    real space projection operators read in
    PAW grid and wavefunctions read in
 
   number of l-projection  operators is LMAX  =           3
   number of lm-projection operators is LMMAX =           5
 
  PAW_PBE O 08Apr2002                   :
 energy of atom  1       EATOM= -432.3788
 kinetic energy error for atom=    0.0005 (will be added to EATOM!!)
  PAW_PBE H 15Jun2001                   :
 energy of atom  2       EATOM=  -12.4884
 kinetic energy error for atom=    0.0000 (will be added to EATOM!!)
 
 
 POSCAR: O H                                     
  positions in cartesian coordinates
  No initial velocities read in
 exchange correlation table for  LEXCH =        8
   RHO(1)=    0.500       N(1)  =     2000
   RHO(2)=  100.500       N(2)  =     4000
 


--------------------------------------------------------------------------------------------------------


 ion  position               nearest neighbor table
   1  0.984  0.997  1.000-   2 0.96   3 0.97
   2  0.975  0.023  0.000-   1 0.96
   3  0.012  1.000  1.000-   1 0.97
 
  LATTYP: Found a simple cubic cell.
 ALAT       =    35.0000000000
  
  Lattice vectors:
  
 A1 = (  35.0000000000,   0.0000000000,   0.0000000000)
 A2 = (   0.0000000000,  35.0000000000,   0.0000000000)
 A3 = (   0.0000000000,   0.0000000000,  35.0000000000)


Analysis of symmetry for initial positions (statically):
=====================================================================
 Subroutine PRICEL returns:
 Original cell was already a primitive cell.
 

 Routine SETGRP: Setting up the symmetry group for a 
 simple cubic supercell.


 Subroutine GETGRP returns: Found  1 space group operations
 (whereof  1 operations were pure point group operations)
 out of a pool of 48 trial point group operations.


The static configuration has the point symmetry C_1 .


Analysis of symmetry for dynamics (positions and initial velocities):
=====================================================================
 Subroutine PRICEL returns:
 Original cell was already a primitive cell.
 

 Routine SETGRP: Setting up the symmetry group for a 
 simple cubic supercell.


 Subroutine GETGRP returns: Found  1 space group operations
 (whereof  1 operations were pure point group operations)
 out of a pool of 48 trial point group operations.


The dynamic configuration has the point symmetry C_1 .
 
 
 KPOINTS: automatic mesh                          

Automatic generation of k-mesh.
Space group operators:
 irot       det(A)        alpha          n_x          n_y          n_z        tau_x        tau_y        tau_z
    1     1.000000     0.000000     1.000000     0.000000     0.000000     0.000000     0.000000     0.000000
 
 Subroutine IBZKPT returns following result:
 ===========================================
 
 Found      1 irreducible k-points:
 
 Following reciprocal coordinates:
            Coordinates               Weight
  0.000000  0.000000  0.000000      1.000000
 
 Following cartesian coordinates:
            Coordinates               Weight
  0.000000  0.000000  0.000000      1.000000
 


--------------------------------------------------------------------------------------------------------




 Dimension of arrays:
   k-points           NKPTS =      1   k-points in BZ     NKDIM =      1   number of bands    NBANDS=      8
   number of dos      NEDOS =    301   number of ions     NIONS =      3
   non local maximal  LDIM  =      4   non local SUM 2l+1 LMDIM =      8
   total plane-waves  NPLWV = ******
   max r-space proj   IRMAX =      1   max aug-charges    IRDMAX=  33660
   dimension x,y,z NGX =   480 NGY =  480 NGZ =  480
   dimension x,y,z NGXF=   960 NGYF=  960 NGZF=  960
   support grid    NGXF=   960 NGYF=  960 NGZF=  960
   ions per type =               1   2
 NGX,Y,Z   is equivalent  to a cutoff of  22.80, 22.80, 22.80 a.u.
 NGXF,Y,Z  is equivalent  to a cutoff of  45.60, 45.60, 45.60 a.u.


 I would recommend the setting:
   dimension x,y,z NGX =   457 NGY =  457 NGZ =  457
 SYSTEM =  C                                       
 POSCAR =  O H                                     

 Startparameter for this run:
   NWRITE =      2    write-flag & timer
   PREC   = acc       normal or accurate (medium, high low for compatibility)
   ISTART =      0    job   : 0-new  1-cont  2-samecut
   ICHARG =      2    charge: 1-file 2-atom 10-const
   ISPIN  =      1    spin polarized calculation?
   LNONCOLLINEAR =      F non collinear calculations
   LSORBIT =      F    spin-orbit coupling
   INIWAV =      1    electr: 0-lowe 1-rand  2-diag
   LASPH  =      T    aspherical Exc in radial PAW
   METAGGA=      F    non-selfconsistent MetaGGA calc.

 Electronic Relaxation 1
   ENCUT  = 1600.0 eV 117.60 Ry   10.84 a.u. 114.15114.15114.15*2*pi/ulx,y,z
   ENINI  = 1600.0     initial cutoff
   ENAUG  =  605.4 eV  augmentation charge cutoff
   NELM   =     60;   NELMIN=  2; NELMDL= -5     # of ELM steps 
   EDIFF  = 0.1E-06   stopping-criterion for ELM
   LREAL  =      F    real-space projection
   NLSPLINE    = F    spline interpolate recip. space projectors
   LCOMPAT=      F    compatible to vasp.4.4
   GGA_COMPAT  = T    GGA compatible to vasp.4.4-vasp.4.6
   LMAXPAW     = -100 max onsite density
   LMAXMIX     =    2 max onsite mixed and CHGCAR
   VOSKOWN=      0    Vosko Wilk Nusair interpolation
   ROPT   =    0.00000   0.00000
 Ionic relaxation
   EDIFFG = 0.1E-05   stopping-criterion for IOM
   NSW    =      0    number of steps for IOM
   NBLOCK =      1;   KBLOCK =      1    inner block; outer block 
   IBRION =     -1    ionic relax: 0-MD 1-quasi-New 2-CG
   NFREE  =      0    steps in history (QN), initial steepest desc. (CG)
   ISIF   =      2    stress and relaxation
   IWAVPR =     10    prediction:  0-non 1-charg 2-wave 3-comb
   ISYM   =      2    0-nonsym 1-usesym 2-fastsym
   LCORR  =      T    Harris-Foulkes like correction to forces

   POTIM  = 0.5000    time-step for ionic-motion
   TEIN   =    0.0    initial temperature
   TEBEG  =    0.0;   TEEND  =   0.0 temperature during run
   SMASS  =  -3.00    Nose mass-parameter (am)
   estimated Nose-frequenzy (Omega)   =  0.10E-29 period in steps =****** mass=  -0.280E-25a.u.
   SCALEE = 1.0000    scale energy and forces
   NPACO  =    256;   APACO  = 16.0  distance and # of slots for P.C.
   PSTRESS=    0.0 pullay stress

  Mass of Ions in am
   POMASS =  16.00  1.00
  Ionic Valenz
   ZVAL   =   6.00  1.00
  Atomic Wigner-Seitz radii
   RWIGS  =  -1.00 -1.00
  virtual crystal weights 
   VCA    =   1.00  1.00
   NELECT =       8.0000    total number of electrons
   NUPDOWN=      -1.0000    fix difference up-down

 DOS related values:
   EMIN   =  10.00;   EMAX   =-10.00  energy-range for DOS
   EFERMI =   0.00
   ISMEAR =     0;   SIGMA  =   0.01  broadening in eV -4-tet -1-fermi 0-gaus

 Electronic relaxation 2 (details)
   IALGO  =     38    algorithm
   LDIAG  =      T    sub-space diagonalisation (order eigenvalues)
   LSUBROT=      F    optimize rotation matrix (better conditioning)
   TURBO    =      0    0=normal 1=particle mesh
   IRESTART =      0    0=no restart 2=restart with 2 vectors
   NREBOOT  =      0    no. of reboots
   NMIN     =      0    reboot dimension
   EREF     =   0.00    reference energy to select bands
   IMIX   =      4    mixing-type and parameters
     AMIX     =   0.40;   BMIX     =  1.00
     AMIX_MAG =   1.60;   BMIX_MAG =  1.00
     AMIN     =   0.10
     WC   =   100.;   INIMIX=   1;  MIXPRE=   1;  MAXMIX= -45

 Intra band minimization:
   WEIMIN = 0.0000     energy-eigenvalue tresh-hold
   EBREAK =  0.31E-08  absolut break condition
   DEPER  =   0.30     relativ break condition  

   TIME   =   0.40     timestep for ELM

  volume/ion in A,a.u.               =   14291.67     96444.93
  Fermi-wavevector in a.u.,A,eV,Ry     =   0.093548  0.176781  0.119069  0.008751
  Thomas-Fermi vector in A             =   0.652187
 
 Write flags
   LWAVE  =      T    write WAVECAR
   LCHARG =      T    write CHGCAR
   LVTOT  =      F    write LOCPOT, total local potential
   LVHAR  =      F    write LOCPOT, Hartree potential only
   LELF   =      F    write electronic localiz. function (ELF)
   LORBIT =      0    0 simple, 1 ext, 2 COOP (PROOUT)


 Dipole corrections
   LMONO  =      F    monopole corrections only (constant potential shift)
   LDIPOL =      F    correct potential (dipole corrections)
   IDIPOL =      0    1-x, 2-y, 3-z, 4-all directions 
   EPSILON=  1.0000000 bulk dielectric constant

 Exchange correlation treatment:
   GGA     =    --    GGA type
   LEXCH   =     8    internal setting for exchange type
   VOSKOWN=      0    Vosko Wilk Nusair interpolation
   LHFCALC =     F    Hartree Fock is set to
   LHFONE  =     F    Hartree Fock one center treatment
   AEXX    =    0.0000 exact exchange contribution

 Linear response parameters
   LEPSILON=     F    determine dielectric tensor
   LRPA    =     F    only Hartree local field effects (RPA)
   LNABLA  =     F    use nabla operator in PAW spheres
   LVEL    =     F    velocity operator in full k-point grid
   LINTERFAST=   F  fast interpolation
   KINTER  =     0    interpolate to denser k-point grid
   CSHIFT  =0.1000    complex shift for real part using Kramers Kronig
   OMEGAMAX=  -1.0    maximum frequency
   DEG_THRESHOLD= 0.2000000E-02 threshold for treating states as degnerate
   RTIME   =    0.100 relaxation time in fs

 Orbital magnetization related:
   ORBITALMAG=     F  switch on orbital magnetization
   LCHIMAG   =     F  perturbation theory with respect to B field
   DQ        =  0.001000  dq finite difference perturbation B field



--------------------------------------------------------------------------------------------------------


 Static calculation
 charge density and potential will be updated during run
 non-spin polarized calculation
 Variant of blocked Davidson
 Davidson routine will perform the subspace rotation
 perform sub-space diagonalisation
    after iterative eigenvector-optimisation
 modified Broyden-mixing scheme, WC =      100.0
 initial mixing is a Kerker type mixing with AMIX =  0.4000 and BMIX =      1.0000
 Hartree-type preconditioning will be used
 using additional bands            4
 reciprocal scheme for non local part
 use partial core corrections
 calculate Harris-corrections to forces 
   (improved forces if not selfconsistent)
 use gradient corrections 
 use of overlap-Matrix (Vanderbilt PP)
 Gauss-broadening in eV      SIGMA  =   0.01


--------------------------------------------------------------------------------------------------------


  energy-cutoff  :     1600.00
  volume of cell :    42875.00
      direct lattice vectors                 reciprocal lattice vectors
    35.000000000  0.000000000  0.000000000     0.028571429  0.000000000  0.000000000
     0.000000000 35.000000000  0.000000000     0.000000000  0.028571429  0.000000000
     0.000000000  0.000000000 35.000000000     0.000000000  0.000000000  0.028571429

  length of vectors
    35.000000000 35.000000000 35.000000000     0.028571429  0.028571429  0.028571429


 
 k-points in units of 2pi/SCALE and weight: automatic mesh                          
   0.00000000  0.00000000  0.00000000       1.000
 
 k-points in reciprocal lattice and weights: automatic mesh                          
   0.00000000  0.00000000  0.00000000       1.000
 
 position of ions in fractional coordinates (direct lattice) 
   0.98420483  0.99709436  0.99998575
   0.97509258  0.02290835  0.00000413
   0.01179027  0.99994765  0.99999281
 
 position of ions in cartesian coordinates  (Angst):
  34.44716898 34.89830251 34.99950121
  34.12824037  0.80179220  0.00014440
   0.41265950 34.99816775 34.99974819
 


--------------------------------------------------------------------------------------------------------


 use parallel FFT for wavefunctions z direction half grid
 k-point  1 :   0.0000 0.0000 0.0000  plane waves: 3115599

 maximum and minimum number of plane-waves per node :    259651   259618

 maximum number of plane-waves:   3115599
 maximum index in each direction: 
   IXMAX=  114   IYMAX=  114   IZMAX=  114
   IXMIN= -114   IYMIN= -114   IZMIN=    0

 NGX is ok and might be reduce to 458
 NGY is ok and might be reduce to 458
 NGZ is ok and might be reduce to 458

 parallel 3D FFT for wavefunctions:
    minimum data exchange during FFTs selected (reduces bandwidth)
 parallel 3D FFT for charge:
    minimum data exchange during FFTs selected (reduces bandwidth)


 total amount of memory used by VASP on root node  7279383. kBytes
========================================================================

   base      :      30000. kBytes
   nonl-proj :      45696. kBytes
   fftplans  :    2666593. kBytes
   grid      :    4503859. kBytes
   one-center:          1. kBytes
   wavefun   :      33234. kBytes
 
     INWAV:  cpu time    0.0000: real time    0.0000
 Broyden mixing: mesh for mixing (old mesh)
   NGX =229   NGY =229   NGZ =229
  (NGX  =960   NGY  =960   NGZ  =960)
  gives a total of ****** points

 initial charge density was supplied:
 charge density of overlapping atoms calculated
 number of electron       8.0000000 magnetization 
 keeping initial charge density in first step


--------------------------------------------------------------------------------------------------------


 Maximum index for augmentation-charges         2695 (set IRDMAX)


--------------------------------------------------------------------------------------------------------


 First call to EWALD:  gamma=   0.051
 Maximum number of real-space cells 3x 3x 3
 Maximum number of reciprocal cells 3x 3x 3

 FEWALD executed in parallel
    FEWALD:  cpu time    0.0012: real time    0.0012


----------------------------------------- Iteration    1(   1)  ---------------------------------------


    POTLOK:  cpu time   33.3539: real time   33.4350
    SETDIJ:  cpu time    0.0489: real time    0.0490
     EDDAV:  cpu time    7.5833: real time    7.6018
       DOS:  cpu time    0.0000: real time    0.0000
    --------------------------------------------
      LOOP:  cpu time   40.9880: real time   41.0896

 eigenvalue-minimisations  :    16
 total energy-change (2. order) : 0.8181481E+02  (-0.1112587E+03)
 number of electron       8.0000000 magnetization 
 augmentation part        8.0000000 magnetization 

 Free energy of the ion-electron system (eV)
  ---------------------------------------------------
  alpha Z        PSCENC =         0.00523035
  Ewald energy   TEWEN  =       151.34559510
  -Hartree energ DENC   =      -509.29797618
  -exchange      EXHF   =         0.00000000
  -V(xc)+E(xc)   XCENC  =        32.21301562
  PAW double counting   =       350.81753176     -352.63395800
  entropy T*S    EENTRO =        -0.00000000
  eigenvalues    EBANDS =       -47.98971363
  atomic energy  EATOM  =       457.35508475
  Solvation  Ediel_sol  =         0.00000000
  ---------------------------------------------------
  free energy    TOTEN  =        81.81480978 eV

  energy without entropy =       81.81480978  energy(sigma->0) =       81.81480978


--------------------------------------------------------------------------------------------------------




----------------------------------------- Iteration    1(   2)  ---------------------------------------


     EDDAV:  cpu time    7.4056: real time    7.4236
       DOS:  cpu time    0.0000: real time    0.0000
    --------------------------------------------
      LOOP:  cpu time    7.4072: real time    7.4286

 eigenvalue-minimisations  :    16
 total energy-change (2. order) :-0.3123600E+02  (-0.3123600E+02)
 number of electron       8.0000000 magnetization 
 augmentation part        8.0000000 magnetization 

 Free energy of the ion-electron system (eV)
  ---------------------------------------------------
  alpha Z        PSCENC =         0.00523035
  Ewald energy   TEWEN  =       151.34559510
  -Hartree energ DENC   =      -509.29797618
  -exchange      EXHF   =         0.00000000
  -V(xc)+E(xc)   XCENC  =        32.21301562
  PAW double counting   =       350.81753176     -352.63395800
  entropy T*S    EENTRO =        -0.00000000
  eigenvalues    EBANDS =       -79.22570949
  atomic energy  EATOM  =       457.35508475
  Solvation  Ediel_sol  =         0.00000000
  ---------------------------------------------------
  free energy    TOTEN  =        50.57881392 eV

  energy without entropy =       50.57881392  energy(sigma->0) =       50.57881392


--------------------------------------------------------------------------------------------------------




----------------------------------------- Iteration    1(   3)  ---------------------------------------


     EDDAV:  cpu time   12.2240: real time   12.2539
       DOS:  cpu time    0.0000: real time    0.0000
    --------------------------------------------
      LOOP:  cpu time   12.2257: real time   12.2587

 eigenvalue-minimisations  :    32
 total energy-change (2. order) :-0.4330160E+02  (-0.4330160E+02)
 number of electron       8.0000000 magnetization 
 augmentation part        8.0000000 magnetization 

 Free energy of the ion-electron system (eV)
  ---------------------------------------------------
  alpha Z        PSCENC =         0.00523035
  Ewald energy   TEWEN  =       151.34559510
  -Hartree energ DENC   =      -509.29797618
  -exchange      EXHF   =         0.00000000
  -V(xc)+E(xc)   XCENC  =        32.21301562
  PAW double counting   =       350.81753176     -352.63395800
  entropy T*S    EENTRO =        -0.00000000
  eigenvalues    EBANDS =      -122.52730694
  atomic energy  EATOM  =       457.35508475
  Solvation  Ediel_sol  =         0.00000000
  ---------------------------------------------------
  free energy    TOTEN  =         7.27721647 eV

  energy without entropy =        7.27721647  energy(sigma->0) =        7.27721647


--------------------------------------------------------------------------------------------------------




----------------------------------------- Iteration    1(   4)  ---------------------------------------


     EDDAV:  cpu time    7.4034: real time    7.4214
       DOS:  cpu time    0.0000: real time    0.0000
    --------------------------------------------
      LOOP:  cpu time    7.4051: real time    7.4260

 eigenvalue-minimisations  :    16
 total energy-change (2. order) :-0.2028614E+02  (-0.2028614E+02)
 number of electron       8.0000000 magnetization 
 augmentation part        8.0000000 magnetization 

 Free energy of the ion-electron system (eV)
  ---------------------------------------------------
  alpha Z        PSCENC =         0.00523035
  Ewald energy   TEWEN  =       151.34559510
  -Hartree energ DENC   =      -509.29797618
  -exchange      EXHF   =         0.00000000
  -V(xc)+E(xc)   XCENC  =        32.21301562
  PAW double counting   =       350.81753176     -352.63395800
  entropy T*S    EENTRO =        -0.00000000
  eigenvalues    EBANDS =      -142.81344548
  atomic energy  EATOM  =       457.35508475
  Solvation  Ediel_sol  =         0.00000000
  ---------------------------------------------------
  free energy    TOTEN  =       -13.00892207 eV

  energy without entropy =      -13.00892207  energy(sigma->0) =      -13.00892207


--------------------------------------------------------------------------------------------------------




----------------------------------------- Iteration    1(   5)  ---------------------------------------


     EDDAV:  cpu time    7.4062: real time    7.4243
       DOS:  cpu time    0.0000: real time    0.0000
    CHARGE:  cpu time    3.2916: real time    3.2996
    MIXING:  cpu time    0.9479: real time    0.9502
    --------------------------------------------
      LOOP:  cpu time   11.6474: real time   11.6791

 eigenvalue-minimisations  :    16
 total energy-change (2. order) :-0.3287376E+01  (-0.3287376E+01)
 number of electron       8.0000000 magnetization 
 augmentation part        0.8310129 magnetization 

 Broyden mixing:
  rms(total) = 0.78220E+00    rms(broyden)= 0.78220E+00
  rms(prec ) = 0.80790E+00
  weight for this iteration     100.00

 Free energy of the ion-electron system (eV)
  ---------------------------------------------------
  alpha Z        PSCENC =         0.00523035
  Ewald energy   TEWEN  =       151.34559510
  -Hartree energ DENC   =      -509.29797618
  -exchange      EXHF   =         0.00000000
  -V(xc)+E(xc)   XCENC  =        32.21301562
  PAW double counting   =       350.81753176     -352.63395800
  entropy T*S    EENTRO =        -0.00000000
  eigenvalues    EBANDS =      -146.10082179
  atomic energy  EATOM  =       457.35508475
  Solvation  Ediel_sol  =         0.00000000
  ---------------------------------------------------
  free energy    TOTEN  =       -16.29629838 eV

  energy without entropy =      -16.29629838  energy(sigma->0) =      -16.29629838


--------------------------------------------------------------------------------------------------------




----------------------------------------- Iteration    1(   6)  ---------------------------------------


    POTLOK:  cpu time   32.9977: real time   33.0780
    SETDIJ:  cpu time    0.0562: real time    0.0563
     EDDAV:  cpu time    9.9187: real time    9.9429
       DOS:  cpu time    0.0000: real time    0.0000
    CHARGE:  cpu time    3.1765: real time    3.1843
    MIXING:  cpu time    0.9966: real time    0.9990
    --------------------------------------------
      LOOP:  cpu time   47.1476: real time   47.2654

 eigenvalue-minimisations  :    24
 total energy-change (2. order) : 0.1867063E+01  (-0.8654107E+00)
 number of electron       8.0000000 magnetization 
 augmentation part        0.7055139 magnetization 

 Broyden mixing:
  rms(total) = 0.32151E+00    rms(broyden)= 0.32151E+00
  rms(prec ) = 0.32719E+00
  weight for this iteration     100.00

 eigenvalues of (default mixing * dielectric matrix)
  average eigenvalue GAMMA=   0.9463
  0.9463

 Free energy of the ion-electron system (eV)
  ---------------------------------------------------
  alpha Z        PSCENC =         0.00523035
  Ewald energy   TEWEN  =       151.34559510
  -Hartree energ DENC   =      -533.10332867
  -exchange      EXHF   =         0.00000000
  -V(xc)+E(xc)   XCENC  =        33.53034132
  PAW double counting   =       445.42441432     -447.58112468
  entropy T*S    EENTRO =        -0.00000000
  eigenvalues    EBANDS =      -121.40544782
  atomic energy  EATOM  =       457.35508475
  Solvation  Ediel_sol  =         0.00000000
  ---------------------------------------------------
  free energy    TOTEN  =       -14.42923533 eV

  energy without entropy =      -14.42923533  energy(sigma->0) =      -14.42923533


--------------------------------------------------------------------------------------------------------




----------------------------------------- Iteration    1(   7)  ---------------------------------------


    POTLOK:  cpu time   33.0059: real time   33.0861
    SETDIJ:  cpu time    0.0518: real time    0.0519
     EDDAV:  cpu time    9.9074: real time    9.9314
       DOS:  cpu time    0.0000: real time    0.0000
    CHARGE:  cpu time    3.1811: real time    3.1888
    MIXING:  cpu time    1.0184: real time    1.0208
    --------------------------------------------
      LOOP:  cpu time   47.1663: real time   47.2838

 eigenvalue-minimisations  :    24
 total energy-change (2. order) : 0.1144926E+00  (-0.7403574E-02)
 number of electron       8.0000000 magnetization 
 augmentation part        0.6981107 magnetization 

 Broyden mixing:
  rms(total) = 0.20358E+00    rms(broyden)= 0.20358E+00
  rms(prec ) = 0.20746E+00
  weight for this iteration     100.00

 eigenvalues of (default mixing * dielectric matrix)
  average eigenvalue GAMMA=   1.7113
  1.0644  2.3581

 Free energy of the ion-electron system (eV)
  ---------------------------------------------------
  alpha Z        PSCENC =         0.00523035
  Ewald energy   TEWEN  =       151.34559510
  -Hartree energ DENC   =      -537.16393702
  -exchange      EXHF   =         0.00000000
  -V(xc)+E(xc)   XCENC  =        33.74685777
  PAW double counting   =       489.53267997     -491.67073274
  entropy T*S    EENTRO =        -0.00000000
  eigenvalues    EBANDS =      -117.46552096
  atomic energy  EATOM  =       457.35508475
  Solvation  Ediel_sol  =         0.00000000
  ---------------------------------------------------
  free energy    TOTEN  =       -14.31474277 eV

  energy without entropy =      -14.31474277  energy(sigma->0) =      -14.31474277


--------------------------------------------------------------------------------------------------------




----------------------------------------- Iteration    1(   8)  ---------------------------------------


    POTLOK:  cpu time   33.0029: real time   33.0832
    SETDIJ:  cpu time    0.0579: real time    0.0581
     EDDAV:  cpu time   12.3504: real time   12.3806
       DOS:  cpu time    0.0000: real time    0.0000
    CHARGE:  cpu time    3.1776: real time    3.1854
    MIXING:  cpu time    1.0504: real time    1.0530
    --------------------------------------------
      LOOP:  cpu time   49.6412: real time   49.7657

 eigenvalue-minimisations  :    32
 total energy-change (2. order) : 0.9255599E-01  (-0.6505767E-02)
 number of electron       8.0000000 magnetization 
 augmentation part        0.6964268 magnetization 

 Broyden mixing:
  rms(total) = 0.18275E-01    rms(broyden)= 0.18275E-01
  rms(prec ) = 0.22216E-01
  weight for this iteration     100.00

 eigenvalues of (default mixing * dielectric matrix)
  average eigenvalue GAMMA=   1.6627
  2.4324  1.0654  1.4903

 Free energy of the ion-electron system (eV)
  ---------------------------------------------------
  alpha Z        PSCENC =         0.00523035
  Ewald energy   TEWEN  =       151.34559510
  -Hartree energ DENC   =      -542.56351801
  -exchange      EXHF   =         0.00000000
  -V(xc)+E(xc)   XCENC  =        34.04956175
  PAW double counting   =       556.17838770     -558.27086277
  entropy T*S    EENTRO =        -0.00000000
  eigenvalues    EBANDS =      -112.32166565
  atomic energy  EATOM  =       457.35508475
  Solvation  Ediel_sol  =         0.00000000
  ---------------------------------------------------
  free energy    TOTEN  =       -14.22218678 eV

  energy without entropy =      -14.22218678  energy(sigma->0) =      -14.22218678


--------------------------------------------------------------------------------------------------------




----------------------------------------- Iteration    1(   9)  ---------------------------------------


    POTLOK:  cpu time   33.0227: real time   33.1029
    SETDIJ:  cpu time    0.0576: real time    0.0577
     EDDAV:  cpu time    9.9063: real time    9.9304
       DOS:  cpu time    0.0000: real time    0.0000
    CHARGE:  cpu time    3.1757: real time    3.1834
    MIXING:  cpu time    1.0853: real time    1.0879
    --------------------------------------------
      LOOP:  cpu time   47.2494: real time   47.4269

 eigenvalue-minimisations  :    24
 total energy-change (2. order) :-0.4879683E-03  (-0.6770045E-03)
 number of electron       8.0000000 magnetization 
 augmentation part        0.6931622 magnetization 

 Broyden mixing:
  rms(total) = 0.14030E-01    rms(broyden)= 0.14030E-01
  rms(prec ) = 0.16416E-01
  weight for this iteration     100.00

 eigenvalues of (default mixing * dielectric matrix)
  average eigenvalue GAMMA=   1.9064
  1.0026  1.0026  2.5122  3.1082

 Free energy of the ion-electron system (eV)
  ---------------------------------------------------
  alpha Z        PSCENC =         0.00523035
  Ewald energy   TEWEN  =       151.34559510
  -Hartree energ DENC   =      -543.73106716
  -exchange      EXHF   =         0.00000000
  -V(xc)+E(xc)   XCENC  =        34.09379421
  PAW double counting   =       554.61742891     -556.71324304
  entropy T*S    EENTRO =        -0.00000000
  eigenvalues    EBANDS =      -111.19549787
  atomic energy  EATOM  =       457.35508475
  Solvation  Ediel_sol  =         0.00000000
  ---------------------------------------------------
  free energy    TOTEN  =       -14.22267475 eV

  energy without entropy =      -14.22267475  energy(sigma->0) =      -14.22267475


--------------------------------------------------------------------------------------------------------




----------------------------------------- Iteration    1(  10)  ---------------------------------------


    POTLOK:  cpu time   33.0331: real time   33.1134
    SETDIJ:  cpu time    0.0531: real time    0.0533
     EDDAV:  cpu time    7.4700: real time    7.4882
       DOS:  cpu time    0.0000: real time    0.0000
    CHARGE:  cpu time    3.1767: real time    3.1844
    MIXING:  cpu time    1.1279: real time    1.1306
    --------------------------------------------
      LOOP:  cpu time   44.8627: real time   44.9752

 eigenvalue-minimisations  :    16
 total energy-change (2. order) :-0.4152577E-02  (-0.2771601E-03)
 number of electron       8.0000000 magnetization 
 augmentation part        0.6942013 magnetization 

 Broyden mixing:
  rms(total) = 0.50766E-02    rms(broyden)= 0.50766E-02
  rms(prec ) = 0.69176E-02
  weight for this iteration     100.00

 eigenvalues of (default mixing * dielectric matrix)
  average eigenvalue GAMMA=   1.9235
  3.2115  1.0132  1.0132  2.1897  2.1897

 Free energy of the ion-electron system (eV)
  ---------------------------------------------------
  alpha Z        PSCENC =         0.00523035
  Ewald energy   TEWEN  =       151.34559510
  -Hartree energ DENC   =      -544.25015704
  -exchange      EXHF   =         0.00000000
  -V(xc)+E(xc)   XCENC  =        34.09454876
  PAW double counting   =       548.77882341     -550.86762433
  entropy T*S    EENTRO =        -0.00000000
  eigenvalues    EBANDS =      -110.68832833
  atomic energy  EATOM  =       457.35508475
  Solvation  Ediel_sol  =         0.00000000
  ---------------------------------------------------
  free energy    TOTEN  =       -14.22682733 eV

  energy without entropy =      -14.22682733  energy(sigma->0) =      -14.22682733


--------------------------------------------------------------------------------------------------------




----------------------------------------- Iteration    1(  11)  ---------------------------------------


    POTLOK:  cpu time   33.0490: real time   33.1294
    SETDIJ:  cpu time    0.0516: real time    0.0517
     EDDAV:  cpu time   12.3319: real time   12.3620
       DOS:  cpu time    0.0000: real time    0.0000
    CHARGE:  cpu time    3.1785: real time    3.1862
    MIXING:  cpu time    1.1627: real time    1.1656
    --------------------------------------------
      LOOP:  cpu time   49.7758: real time   49.9004

 eigenvalue-minimisations  :    32
 total energy-change (2. order) :-0.5251452E-02  (-0.1776657E-03)
 number of electron       8.0000000 magnetization 
 augmentation part        0.6928864 magnetization 

 Broyden mixing:
  rms(total) = 0.48156E-02    rms(broyden)= 0.48156E-02
  rms(prec ) = 0.57695E-02
  weight for this iteration     100.00

 eigenvalues of (default mixing * dielectric matrix)
  average eigenvalue GAMMA=   2.0500
  4.1437  2.8646  2.4072  1.0068  1.0068  0.8711

 Free energy of the ion-electron system (eV)
  ---------------------------------------------------
  alpha Z        PSCENC =         0.00523035
  Ewald energy   TEWEN  =       151.34559510
  -Hartree energ DENC   =      -544.69375459
  -exchange      EXHF   =         0.00000000
  -V(xc)+E(xc)   XCENC  =        34.10600028
  PAW double counting   =       550.67616408     -552.76740346
  entropy T*S    EENTRO =        -0.00000000
  eigenvalues    EBANDS =      -110.25899530
  atomic energy  EATOM  =       457.35508475
  Solvation  Ediel_sol  =         0.00000000
  ---------------------------------------------------
  free energy    TOTEN  =       -14.23207878 eV

  energy without entropy =      -14.23207878  energy(sigma->0) =      -14.23207878


--------------------------------------------------------------------------------------------------------




----------------------------------------- Iteration    1(  12)  ---------------------------------------


    POTLOK:  cpu time   33.0694: real time   33.1497
    SETDIJ:  cpu time    0.0518: real time    0.0520
     EDDAV:  cpu time    9.8943: real time    9.9184
       DOS:  cpu time    0.0000: real time    0.0000
    CHARGE:  cpu time    3.1768: real time    3.1845
    MIXING:  cpu time    1.2067: real time    1.2097
    --------------------------------------------
      LOOP:  cpu time   47.4010: real time   47.5191

 eigenvalue-minimisations  :    24
 total energy-change (2. order) :-0.3471558E-02  (-0.8889049E-04)
 number of electron       8.0000000 magnetization 
 augmentation part        0.6935110 magnetization 

 Broyden mixing:
  rms(total) = 0.15454E-02    rms(broyden)= 0.15454E-02
  rms(prec ) = 0.23470E-02
  weight for this iteration     100.00

 eigenvalues of (default mixing * dielectric matrix)
  average eigenvalue GAMMA=   2.2214
  5.3656  2.9437  2.4927  1.7771  1.0526  0.9591  0.9591

 Free energy of the ion-electron system (eV)
  ---------------------------------------------------
  alpha Z        PSCENC =         0.00523035
  Ewald energy   TEWEN  =       151.34559510
  -Hartree energ DENC   =      -544.72586065
  -exchange      EXHF   =         0.00000000
  -V(xc)+E(xc)   XCENC  =        34.09551544
  PAW double counting   =       549.58683372     -551.67612021
  entropy T*S    EENTRO =        -0.00000000
  eigenvalues    EBANDS =      -110.22182883
  atomic energy  EATOM  =       457.35508475
  Solvation  Ediel_sol  =         0.00000000
  ---------------------------------------------------
  free energy    TOTEN  =       -14.23555034 eV

  energy without entropy =      -14.23555034  energy(sigma->0) =      -14.23555034


--------------------------------------------------------------------------------------------------------




----------------------------------------- Iteration    1(  13)  ---------------------------------------


    POTLOK:  cpu time   33.0682: real time   33.1486
    SETDIJ:  cpu time    0.0543: real time    0.0545
     EDDAV:  cpu time   12.3319: real time   12.3619
       DOS:  cpu time    0.0000: real time    0.0000
    CHARGE:  cpu time    3.1767: real time    3.1845
    MIXING:  cpu time    1.2560: real time    1.2590
    --------------------------------------------
      LOOP:  cpu time   49.8890: real time   50.0131

 eigenvalue-minimisations  :    32
 total energy-change (2. order) :-0.2643914E-02  (-0.3324148E-04)
 number of electron       8.0000000 magnetization 
 augmentation part        0.6933170 magnetization 

 Broyden mixing:
  rms(total) = 0.85895E-03    rms(broyden)= 0.85895E-03
  rms(prec ) = 0.12484E-02
  weight for this iteration     100.00

 eigenvalues of (default mixing * dielectric matrix)
  average eigenvalue GAMMA=   2.3988
  6.5680  3.5437  2.5545  2.3854  1.1965  0.9293  1.0063  1.0063

 Free energy of the ion-electron system (eV)
  ---------------------------------------------------
  alpha Z        PSCENC =         0.00523035
  Ewald energy   TEWEN  =       151.34559510
  -Hartree energ DENC   =      -544.81438630
  -exchange      EXHF   =         0.00000000
  -V(xc)+E(xc)   XCENC  =        34.09337334
  PAW double counting   =       549.71043731     -551.79912255
  entropy T*S    EENTRO =        -0.00000000
  eigenvalues    EBANDS =      -110.13440626
  atomic energy  EATOM  =       457.35508475
  Solvation  Ediel_sol  =         0.00000000
  ---------------------------------------------------
  free energy    TOTEN  =       -14.23819425 eV

  energy without entropy =      -14.23819425  energy(sigma->0) =      -14.23819425


--------------------------------------------------------------------------------------------------------




----------------------------------------- Iteration    1(  14)  ---------------------------------------


    POTLOK:  cpu time   33.0642: real time   33.1445
    SETDIJ:  cpu time    0.0466: real time    0.0467
     EDDAV:  cpu time    7.4614: real time    7.4796
       DOS:  cpu time    0.0000: real time    0.0000
    CHARGE:  cpu time    3.1762: real time    3.1839
    MIXING:  cpu time    1.3070: real time    1.3101
    --------------------------------------------
      LOOP:  cpu time   45.0571: real time   45.1698

 eigenvalue-minimisations  :    16
 total energy-change (2. order) :-0.1448547E-02  (-0.1287791E-04)
 number of electron       8.0000000 magnetization 
 augmentation part        0.6934128 magnetization 

 Broyden mixing:
  rms(total) = 0.54915E-03    rms(broyden)= 0.54914E-03
  rms(prec ) = 0.70689E-03
  weight for this iteration     100.00

 eigenvalues of (default mixing * dielectric matrix)
  average eigenvalue GAMMA=   2.5822
  7.5812  4.2815  2.7109  2.5703  2.1663  1.0447  0.9919  0.9919  0.9010

 Free energy of the ion-electron system (eV)
  ---------------------------------------------------
  alpha Z        PSCENC =         0.00523035
  Ewald energy   TEWEN  =       151.34559510
  -Hartree energ DENC   =      -544.79731582
  -exchange      EXHF   =         0.00000000
  -V(xc)+E(xc)   XCENC  =        34.08973281
  PAW double counting   =       549.55251891     -551.64050300
  entropy T*S    EENTRO =        -0.00000000
  eigenvalues    EBANDS =      -110.14998590
  atomic energy  EATOM  =       457.35508475
  Solvation  Ediel_sol  =         0.00000000
  ---------------------------------------------------
  free energy    TOTEN  =       -14.23964280 eV

  energy without entropy =      -14.23964280  energy(sigma->0) =      -14.23964280


--------------------------------------------------------------------------------------------------------




----------------------------------------- Iteration    1(  15)  ---------------------------------------


    POTLOK:  cpu time   33.0494: real time   33.1297
    SETDIJ:  cpu time    0.0482: real time    0.0484
     EDDAV:  cpu time   12.3263: real time   12.3562
       DOS:  cpu time    0.0000: real time    0.0000
    CHARGE:  cpu time    3.1749: real time    3.1826
    MIXING:  cpu time    1.3641: real time    1.3674
    --------------------------------------------
      LOOP:  cpu time   49.9647: real time   50.0891

 eigenvalue-minimisations  :    32
 total energy-change (2. order) :-0.7142480E-03  (-0.4685606E-05)
 number of electron       8.0000000 magnetization 
 augmentation part        0.6933565 magnetization 

 Broyden mixing:
  rms(total) = 0.21304E-03    rms(broyden)= 0.21304E-03
  rms(prec ) = 0.29025E-03
  weight for this iteration     100.00

 eigenvalues of (default mixing * dielectric matrix)
  average eigenvalue GAMMA=   2.5723
  7.9780  4.4960  3.0710  2.5267  2.3587  1.4084  1.0465  0.9789  0.9789  0.8797

 Free energy of the ion-electron system (eV)
  ---------------------------------------------------
  alpha Z        PSCENC =         0.00523035
  Ewald energy   TEWEN  =       151.34559510
  -Hartree energ DENC   =      -544.80004569
  -exchange      EXHF   =         0.00000000
  -V(xc)+E(xc)   XCENC  =        34.08903648
  PAW double counting   =       549.45787636     -551.54603635
  entropy T*S    EENTRO =        -0.00000000
  eigenvalues    EBANDS =      -110.14709804
  atomic energy  EATOM  =       457.35508475
  Solvation  Ediel_sol  =         0.00000000
  ---------------------------------------------------
  free energy    TOTEN  =       -14.24035705 eV

  energy without entropy =      -14.24035705  energy(sigma->0) =      -14.24035705


--------------------------------------------------------------------------------------------------------




----------------------------------------- Iteration    1(  16)  ---------------------------------------


    POTLOK:  cpu time   33.0381: real time   33.1185
    SETDIJ:  cpu time    0.0460: real time    0.0461
     EDDAV:  cpu time    7.4277: real time    7.4458
       DOS:  cpu time    0.0000: real time    0.0000
    CHARGE:  cpu time    3.1762: real time    3.1840
    MIXING:  cpu time    1.4147: real time    1.4181
    --------------------------------------------
      LOOP:  cpu time   45.1045: real time   45.2173

 eigenvalue-minimisations  :    16
 total energy-change (2. order) :-0.2157035E-03  (-0.1822116E-06)
 number of electron       8.0000000 magnetization 
 augmentation part        0.6933445 magnetization 

 Broyden mixing:
  rms(total) = 0.14382E-03    rms(broyden)= 0.14382E-03
  rms(prec ) = 0.18443E-03
  weight for this iteration     100.00

 eigenvalues of (default mixing * dielectric matrix)
  average eigenvalue GAMMA=   2.6735
  8.6199  5.1824  3.4566  2.5756  2.5756  2.0636  1.0775  1.0038  0.9803  0.9803
  0.8932

 Free energy of the ion-electron system (eV)
  ---------------------------------------------------
  alpha Z        PSCENC =         0.00523035
  Ewald energy   TEWEN  =       151.34559510
  -Hartree energ DENC   =      -544.80540983
  -exchange      EXHF   =         0.00000000
  -V(xc)+E(xc)   XCENC  =        34.08887531
  PAW double counting   =       549.47349286     -551.56177671
  entropy T*S    EENTRO =        -0.00000000
  eigenvalues    EBANDS =      -110.14166459
  atomic energy  EATOM  =       457.35508475
  Solvation  Ediel_sol  =         0.00000000
  ---------------------------------------------------
  free energy    TOTEN  =       -14.24057275 eV

  energy without entropy =      -14.24057275  energy(sigma->0) =      -14.24057275


--------------------------------------------------------------------------------------------------------




----------------------------------------- Iteration    1(  17)  ---------------------------------------


    POTLOK:  cpu time   33.0182: real time   33.0984
    SETDIJ:  cpu time    0.0486: real time    0.0487
     EDDAV:  cpu time   12.2634: real time   12.2932
       DOS:  cpu time    0.0000: real time    0.0000
    CHARGE:  cpu time    3.1820: real time    3.1897
    MIXING:  cpu time    1.4723: real time    1.4759
    --------------------------------------------
      LOOP:  cpu time   49.9864: real time   50.1107

 eigenvalue-minimisations  :    32
 total energy-change (2. order) :-0.1401212E-03  (-0.2034124E-06)
 number of electron       8.0000000 magnetization 
 augmentation part        0.6933616 magnetization 

 Broyden mixing:
  rms(total) = 0.64901E-04    rms(broyden)= 0.64901E-04
  rms(prec ) = 0.85359E-04
  weight for this iteration     100.00

 eigenvalues of (default mixing * dielectric matrix)
  average eigenvalue GAMMA=   2.6934
  8.9891  5.4868  3.6611  2.8395  2.3778  2.3778  1.6567  1.0718  0.9968  0.9968
  0.8985  0.9674

 Free energy of the ion-electron system (eV)
  ---------------------------------------------------
  alpha Z        PSCENC =         0.00523035
  Ewald energy   TEWEN  =       151.34559510
  -Hartree energ DENC   =      -544.80209136
  -exchange      EXHF   =         0.00000000
  -V(xc)+E(xc)   XCENC  =        34.08848048
  PAW double counting   =       549.51258244     -551.60085157
  entropy T*S    EENTRO =        -0.00000000
  eigenvalues    EBANDS =      -110.14474306
  atomic energy  EATOM  =       457.35508475
  Solvation  Ediel_sol  =         0.00000000
  ---------------------------------------------------
  free energy    TOTEN  =       -14.24071287 eV

  energy without entropy =      -14.24071287  energy(sigma->0) =      -14.24071287


--------------------------------------------------------------------------------------------------------




----------------------------------------- Iteration    1(  18)  ---------------------------------------


    POTLOK:  cpu time   33.0008: real time   33.0811
    SETDIJ:  cpu time    0.0460: real time    0.0461
     EDDAV:  cpu time    7.4240: real time    7.4421
       DOS:  cpu time    0.0000: real time    0.0000
    CHARGE:  cpu time    3.1811: real time    3.1889
    MIXING:  cpu time    1.5294: real time    1.5332
    --------------------------------------------
      LOOP:  cpu time   45.1832: real time   45.2965

 eigenvalue-minimisations  :    16
 total energy-change (2. order) :-0.5996862E-04  (-0.2816073E-07)
 number of electron       8.0000000 magnetization 
 augmentation part        0.6933631 magnetization 

 Broyden mixing:
  rms(total) = 0.43561E-04    rms(broyden)= 0.43561E-04
  rms(prec ) = 0.52893E-04
  weight for this iteration     100.00

 eigenvalues of (default mixing * dielectric matrix)
  average eigenvalue GAMMA=   2.7021
  9.2456  5.8971  4.1054  2.8913  2.5571  2.3850  2.0477  0.8944  0.9921  0.9921
  0.9642  1.0623  1.0932

 Free energy of the ion-electron system (eV)
  ---------------------------------------------------
  alpha Z        PSCENC =         0.00523035
  Ewald energy   TEWEN  =       151.34559510
  -Hartree energ DENC   =      -544.80200046
  -exchange      EXHF   =         0.00000000
  -V(xc)+E(xc)   XCENC  =        34.08837241
  PAW double counting   =       549.49896667     -551.58717281
  entropy T*S    EENTRO =        -0.00000000
  eigenvalues    EBANDS =      -110.14484885
  atomic energy  EATOM  =       457.35508475
  Solvation  Ediel_sol  =         0.00000000
  ---------------------------------------------------
  free energy    TOTEN  =       -14.24077284 eV

  energy without entropy =      -14.24077284  energy(sigma->0) =      -14.24077284


--------------------------------------------------------------------------------------------------------




----------------------------------------- Iteration    1(  19)  ---------------------------------------


    POTLOK:  cpu time   32.9694: real time   33.0496
    SETDIJ:  cpu time    0.0554: real time    0.0555
     EDDAV:  cpu time   12.2638: real time   12.2936
       DOS:  cpu time    0.0000: real time    0.0000
    CHARGE:  cpu time    3.1775: real time    3.1852
    MIXING:  cpu time    1.6011: real time    1.6050
    --------------------------------------------
      LOOP:  cpu time   50.0692: real time   50.1943

 eigenvalue-minimisations  :    32
 total energy-change (2. order) :-0.2448641E-04  (-0.1241186E-07)
 number of electron       8.0000000 magnetization 
 augmentation part        0.6933586 magnetization 

 Broyden mixing:
  rms(total) = 0.18471E-04    rms(broyden)= 0.18471E-04
  rms(prec ) = 0.24855E-04
  weight for this iteration     100.00

 eigenvalues of (default mixing * dielectric matrix)
  average eigenvalue GAMMA=   2.7865
  9.4537  6.4697  4.5331  3.4314  2.5735  2.5735  1.9797  1.9797  0.8972  0.9882
  0.9882  0.9632  1.0605  1.1191

 Free energy of the ion-electron system (eV)
  ---------------------------------------------------
  alpha Z        PSCENC =         0.00523035
  Ewald energy   TEWEN  =       151.34559510
  -Hartree energ DENC   =      -544.80429009
  -exchange      EXHF   =         0.00000000
  -V(xc)+E(xc)   XCENC  =        34.08846305
  PAW double counting   =       549.50568870     -551.59388802
  entropy T*S    EENTRO =        -0.00000000
  eigenvalues    EBANDS =      -110.14268117
  atomic energy  EATOM  =       457.35508475
  Solvation  Ediel_sol  =         0.00000000
  ---------------------------------------------------
  free energy    TOTEN  =       -14.24079733 eV

  energy without entropy =      -14.24079733  energy(sigma->0) =      -14.24079733


--------------------------------------------------------------------------------------------------------




----------------------------------------- Iteration    1(  20)  ---------------------------------------


    POTLOK:  cpu time   32.9742: real time   33.0544
    SETDIJ:  cpu time    0.0490: real time    0.0491
     EDDAV:  cpu time    7.4240: real time    7.4421
       DOS:  cpu time    0.0000: real time    0.0000
    CHARGE:  cpu time    3.1798: real time    3.1875
    MIXING:  cpu time    1.6739: real time    1.6780
    --------------------------------------------
      LOOP:  cpu time   45.3027: real time   45.4162

 eigenvalue-minimisations  :    16
 total energy-change (2. order) :-0.1652118E-04  (-0.7872465E-08)
 number of electron       8.0000000 magnetization 
 augmentation part        0.6933581 magnetization 

 Broyden mixing:
  rms(total) = 0.88764E-05    rms(broyden)= 0.88764E-05
  rms(prec ) = 0.11528E-04
  weight for this iteration     100.00

 eigenvalues of (default mixing * dielectric matrix)
  average eigenvalue GAMMA=   2.7579
  9.5566  6.5942  4.8079  3.4534  2.7464  2.4647  2.4647  1.8890  1.3657  0.8978
  0.9898  0.9898  0.9603  1.1168  1.0719

 Free energy of the ion-electron system (eV)
  ---------------------------------------------------
  alpha Z        PSCENC =         0.00523035
  Ewald energy   TEWEN  =       151.34559510
  -Hartree energ DENC   =      -544.80445460
  -exchange      EXHF   =         0.00000000
  -V(xc)+E(xc)   XCENC  =        34.08846133
  PAW double counting   =       549.50211110     -551.59031744
  entropy T*S    EENTRO =        -0.00000000
  eigenvalues    EBANDS =      -110.14252444
  atomic energy  EATOM  =       457.35508475
  Solvation  Ediel_sol  =         0.00000000
  ---------------------------------------------------
  free energy    TOTEN  =       -14.24081385 eV

  energy without entropy =      -14.24081385  energy(sigma->0) =      -14.24081385


--------------------------------------------------------------------------------------------------------




----------------------------------------- Iteration    1(  21)  ---------------------------------------


    POTLOK:  cpu time   32.9864: real time   33.0665
    SETDIJ:  cpu time    0.0630: real time    0.0631
     EDDAV:  cpu time   12.3264: real time   12.3564
       DOS:  cpu time    0.0000: real time    0.0000
    CHARGE:  cpu time    3.1792: real time    3.1869
    MIXING:  cpu time    1.7383: real time    1.7426
    --------------------------------------------
      LOOP:  cpu time   50.2951: real time   50.4198

 eigenvalue-minimisations  :    32
 total energy-change (2. order) :-0.4791266E-05  (-0.1351486E-08)
 number of electron       8.0000000 magnetization 
 augmentation part        0.6933579 magnetization 

 Broyden mixing:
  rms(total) = 0.60129E-05    rms(broyden)= 0.60129E-05
  rms(prec ) = 0.74417E-05
  weight for this iteration     100.00

 eigenvalues of (default mixing * dielectric matrix)
  average eigenvalue GAMMA=   2.8127
  9.6623  7.0974  5.2012  3.9427  3.0984  2.5530  2.5226  1.9439  1.9439  1.1553
  0.8969  0.9876  0.9876  1.0448  0.9560  1.0100

 Free energy of the ion-electron system (eV)
  ---------------------------------------------------
  alpha Z        PSCENC =         0.00523035
  Ewald energy   TEWEN  =       151.34559510
  -Hartree energ DENC   =      -544.80465579
  -exchange      EXHF   =         0.00000000
  -V(xc)+E(xc)   XCENC  =        34.08846213
  PAW double counting   =       549.50284123     -551.59105629
  entropy T*S    EENTRO =        -0.00000000
  eigenvalues    EBANDS =      -110.14232012
  atomic energy  EATOM  =       457.35508475
  Solvation  Ediel_sol  =         0.00000000
  ---------------------------------------------------
  free energy    TOTEN  =       -14.24081864 eV

  energy without entropy =      -14.24081864  energy(sigma->0) =      -14.24081864


--------------------------------------------------------------------------------------------------------




----------------------------------------- Iteration    1(  22)  ---------------------------------------


    POTLOK:  cpu time   32.9523: real time   33.0325
    SETDIJ:  cpu time    0.0553: real time    0.0554
     EDDAV:  cpu time    7.4562: real time    7.4744
       DOS:  cpu time    0.0000: real time    0.0000
    CHARGE:  cpu time    3.1806: real time    3.1883
    MIXING:  cpu time    1.8150: real time    1.8194
    --------------------------------------------
      LOOP:  cpu time   45.4612: real time   45.5751

 eigenvalue-minimisations  :    16
 total energy-change (2. order) :-0.2727221E-05  (-0.8357404E-09)
 number of electron       8.0000000 magnetization 
 augmentation part        0.6933585 magnetization 

 Broyden mixing:
  rms(total) = 0.26460E-05    rms(broyden)= 0.26460E-05
  rms(prec ) = 0.33426E-05
  weight for this iteration     100.00

 eigenvalues of (default mixing * dielectric matrix)
  average eigenvalue GAMMA=   2.8292
  9.7119  7.3348  5.4339  4.3098  3.1885  2.6666  2.6666  2.3391  1.7712  1.6512
  1.1340  0.8970  0.9891  0.9891  0.9542  1.0434  1.0166

 Free energy of the ion-electron system (eV)
  ---------------------------------------------------
  alpha Z        PSCENC =         0.00523035
  Ewald energy   TEWEN  =       151.34559510
  -Hartree energ DENC   =      -544.80440182
  -exchange      EXHF   =         0.00000000
  -V(xc)+E(xc)   XCENC  =        34.08844602
  PAW double counting   =       549.50286824     -551.59108449
  entropy T*S    EENTRO =        -0.00000000
  eigenvalues    EBANDS =      -110.14255952
  atomic energy  EATOM  =       457.35508475
  Solvation  Ediel_sol  =         0.00000000
  ---------------------------------------------------
  free energy    TOTEN  =       -14.24082137 eV

  energy without entropy =      -14.24082137  energy(sigma->0) =      -14.24082137


--------------------------------------------------------------------------------------------------------




----------------------------------------- Iteration    1(  23)  ---------------------------------------


    POTLOK:  cpu time   32.9459: real time   33.0260
    SETDIJ:  cpu time    0.0622: real time    0.0624
     EDDAV:  cpu time   12.3211: real time   12.3511
       DOS:  cpu time    0.0000: real time    0.0000
    CHARGE:  cpu time    3.1758: real time    3.1835
    MIXING:  cpu time    1.9063: real time    1.9110
    --------------------------------------------
      LOOP:  cpu time   50.4132: real time   50.5386

 eigenvalue-minimisations  :    32
 total energy-change (2. order) :-0.1116397E-05  (-0.3620961E-09)
 number of electron       8.0000000 magnetization 
 augmentation part        0.6933585 magnetization 

 Broyden mixing:
  rms(total) = 0.18547E-05    rms(broyden)= 0.18547E-05
  rms(prec ) = 0.21269E-05
  weight for this iteration     100.00

 eigenvalues of (default mixing * dielectric matrix)
  average eigenvalue GAMMA=   2.8692
  9.7741  7.6653  5.8254  4.5653  3.6135  2.9279  2.5248  2.5248  2.2097  1.8595
  1.2002  0.8971  0.9907  0.9907  0.9590  1.0115  1.0530  1.0530

 Free energy of the ion-electron system (eV)
  ---------------------------------------------------
  alpha Z        PSCENC =         0.00523035
  Ewald energy   TEWEN  =       151.34559510
  -Hartree energ DENC   =      -544.80434111
  -exchange      EXHF   =         0.00000000
  -V(xc)+E(xc)   XCENC  =        34.08844074
  PAW double counting   =       549.50345831     -551.59167166
  entropy T*S    EENTRO =        -0.00000000
  eigenvalues    EBANDS =      -110.14261896
  atomic energy  EATOM  =       457.35508475
  Solvation  Ediel_sol  =         0.00000000
  ---------------------------------------------------
  free energy    TOTEN  =       -14.24082248 eV

  energy without entropy =      -14.24082248  energy(sigma->0) =      -14.24082248


--------------------------------------------------------------------------------------------------------




----------------------------------------- Iteration    1(  24)  ---------------------------------------


    POTLOK:  cpu time   32.8965: real time   32.9765
    SETDIJ:  cpu time    0.0518: real time    0.0519
     EDDAV:  cpu time    7.4545: real time    7.4726
       DOS:  cpu time    0.0000: real time    0.0000
    CHARGE:  cpu time    3.1790: real time    3.1867
    MIXING:  cpu time    1.9775: real time    1.9823
    --------------------------------------------
      LOOP:  cpu time   45.5611: real time   45.6753

 eigenvalue-minimisations  :    16
 total energy-change (2. order) :-0.4486635E-06  (-0.1837428E-09)
 number of electron       8.0000000 magnetization 
 augmentation part        0.6933584 magnetization 

 Broyden mixing:
  rms(total) = 0.75554E-06    rms(broyden)= 0.75554E-06
  rms(prec ) = 0.89072E-06
  weight for this iteration     100.00

 eigenvalues of (default mixing * dielectric matrix)
  average eigenvalue GAMMA=   2.8769
  9.7765  7.9007  6.0676  4.7699  3.8847  3.0481  2.7282  2.4854  2.0964  1.9121
  1.9121  1.1529  0.8970  0.9906  0.9906  1.0447  1.0447  0.9650  0.9932

 Free energy of the ion-electron system (eV)
  ---------------------------------------------------
  alpha Z        PSCENC =         0.00523035
  Ewald energy   TEWEN  =       151.34559510
  -Hartree energ DENC   =      -544.80439785
  -exchange      EXHF   =         0.00000000
  -V(xc)+E(xc)   XCENC  =        34.08844364
  PAW double counting   =       549.50293586     -551.59114791
  entropy T*S    EENTRO =        -0.00000000
  eigenvalues    EBANDS =      -110.14256687
  atomic energy  EATOM  =       457.35508475
  Solvation  Ediel_sol  =         0.00000000
  ---------------------------------------------------
  free energy    TOTEN  =       -14.24082293 eV

  energy without entropy =      -14.24082293  energy(sigma->0) =      -14.24082293


--------------------------------------------------------------------------------------------------------




----------------------------------------- Iteration    1(  25)  ---------------------------------------


    POTLOK:  cpu time   32.8429: real time   32.9228
    SETDIJ:  cpu time    0.0623: real time    0.0624
     EDDAV:  cpu time   12.3115: real time   12.3414
       DOS:  cpu time    0.0000: real time    0.0000
    CHARGE:  cpu time    3.1811: real time    3.1888
    MIXING:  cpu time    2.0646: real time    2.0696
    --------------------------------------------
      LOOP:  cpu time   50.4643: real time   50.5901

 eigenvalue-minimisations  :    32
 total energy-change (2. order) :-0.1315543E-06  (-0.8049028E-10)
 number of electron       8.0000000 magnetization 
 augmentation part        0.6933585 magnetization 

 Broyden mixing:
  rms(total) = 0.75484E-06    rms(broyden)= 0.75484E-06
  rms(prec ) = 0.80346E-06
  weight for this iteration     100.00

 eigenvalues of (default mixing * dielectric matrix)
  average eigenvalue GAMMA=   2.8949
  9.8121  8.0971  6.3527  5.0550  4.0846  3.3549  2.8193  2.5417  2.5417  2.1593
  1.8628  1.2242  0.8970  1.0867  0.9898  0.9898  0.9648  0.9910  1.0372  1.0372

 Free energy of the ion-electron system (eV)
  ---------------------------------------------------
  alpha Z        PSCENC =         0.00523035
  Ewald energy   TEWEN  =       151.34559510
  -Hartree energ DENC   =      -544.80438502
  -exchange      EXHF   =         0.00000000
  -V(xc)+E(xc)   XCENC  =        34.08844277
  PAW double counting   =       549.50291092     -551.59112300
  entropy T*S    EENTRO =        -0.00000000
  eigenvalues    EBANDS =      -110.14257893
  atomic energy  EATOM  =       457.35508475
  Solvation  Ediel_sol  =         0.00000000
  ---------------------------------------------------
  free energy    TOTEN  =       -14.24082306 eV

  energy without entropy =      -14.24082306  energy(sigma->0) =      -14.24082306


--------------------------------------------------------------------------------------------------------




----------------------------------------- Iteration    1(  26)  ---------------------------------------


    POTLOK:  cpu time   32.8452: real time   32.9251
    SETDIJ:  cpu time    0.0559: real time    0.0560
     EDDAV:  cpu time   12.2270: real time   12.2568
       DOS:  cpu time    0.0000: real time    0.0000
    --------------------------------------------
      LOOP:  cpu time   45.1298: real time   45.2422

 eigenvalue-minimisations  :    32
 total energy-change (2. order) :-0.6518803E-07  (-0.4706990E-10)
 number of electron       8.0000000 magnetization 
 augmentation part        0.6933585 magnetization 

 Free energy of the ion-electron system (eV)
  ---------------------------------------------------
  alpha Z        PSCENC =         0.00523035
  Ewald energy   TEWEN  =       151.34559510
  -Hartree energ DENC   =      -544.80439679
  -exchange      EXHF   =         0.00000000
  -V(xc)+E(xc)   XCENC  =        34.08844352
  PAW double counting   =       549.50303162     -551.59124509
  entropy T*S    EENTRO =        -0.00000000
  eigenvalues    EBANDS =      -110.14256659
  atomic energy  EATOM  =       457.35508475
  Solvation  Ediel_sol  =         0.00000000
  ---------------------------------------------------
  free energy    TOTEN  =       -14.24082313 eV

  energy without entropy =      -14.24082313  energy(sigma->0) =      -14.24082313


--------------------------------------------------------------------------------------------------------




 average (electrostatic) potential at core
  the test charge radii are     0.7215  0.5201
  (the norm of the test charge is              1.0000)
       1 -80.5835       2 -44.8365       3 -44.6773
 
 
 
 E-fermi :  -7.1118     XC(G=0):  -0.0208     alpha+bet : -0.0030


 k-point     1 :       0.0000    0.0000    0.0000
  band No.  band energies     occupation 
      1     -25.3946      2.00000
      2     -13.1129      2.00000
      3      -9.3283      2.00000
      4      -7.2355      2.00000
      5      -0.9732      0.00000
      6      -0.0016      0.00000
      7       0.1032      0.00000
      8       0.1119      0.00000


--------------------------------------------------------------------------------------------------------


 soft charge-density along one line, spin component           1
         0         1         2         3         4         5         6         7         8         9
 total charge-density along one line
 
 pseudopotential strength for first ion, spin component:           1
 13.809 -16.929  -0.091  -0.000  -0.055   0.112   0.000   0.068
-16.929  20.786   0.116   0.000   0.070  -0.143  -0.000  -0.086
 -0.091   0.116 -10.517  -0.000   0.038  13.031   0.000  -0.051
 -0.000   0.000  -0.000 -10.365  -0.000   0.000  12.830   0.000
 -0.055   0.070   0.038  -0.000 -10.548  -0.051   0.000  13.073
  0.112  -0.143  13.031   0.000  -0.051 -16.074  -0.000   0.067
  0.000  -0.000   0.000  12.830   0.000  -0.000 -15.808  -0.000
  0.068  -0.086  -0.051   0.000  13.073   0.067  -0.000 -16.129
 total augmentation occupancy for first ion, spin component:           1
  2.710   0.434   0.385   0.000   0.230   0.152   0.000   0.091
  0.434   0.125   0.363   0.000   0.223   0.067   0.000   0.040
  0.385   0.363   2.368   0.000  -0.057   0.384   0.000  -0.061
  0.000   0.000   0.000   2.138   0.000   0.000   0.139   0.000
  0.230   0.223  -0.057   0.000   2.396  -0.061   0.000   0.436
  0.152   0.067   0.384   0.000  -0.061   0.067   0.000  -0.017
  0.000   0.000   0.000   0.139   0.000   0.000   0.009  -0.000
  0.091   0.040  -0.061   0.000   0.436  -0.017  -0.000   0.082


------------------------ aborting loop because EDIFF is reached ----------------------------------------


    CHARGE:  cpu time    3.1839: real time    3.1917
    FORLOC:  cpu time    2.2170: real time    2.2224
    FORNL :  cpu time    0.2435: real time    0.2441
    STRESS:  cpu time    3.5568: real time    3.5655
    FORCOR:  cpu time   33.0272: real time   33.1076
    FORHAR:  cpu time    9.4677: real time    9.4907
    MIXING:  cpu time    2.1503: real time    2.1556
    OFIELD:  cpu time    0.0000: real time    0.0000

  FORCE on cell =-STRESS in cart. coord.  units (eV):
  Direction    XX          YY          ZZ          XY          YZ          ZX
  --------------------------------------------------------------------------------------
  Alpha Z     0.00523     0.00523     0.00523
  Ewald      92.44918    71.35283   -12.45631   -23.46375     0.06072     0.00027
  Hartree   189.03815   185.24367   170.52255    -3.86377     0.01071     0.00026
  E(xc)     -36.05651   -36.13568   -36.49105    -0.08282     0.00026     0.00001
  Local    -359.34291  -340.18984  -267.38648    20.53956    -0.05271    -0.00026
  n-local   -30.48320   -30.98654   -30.92653    -0.36170    -0.00011    -0.00020
  augment     6.06298     6.45881     8.18055     0.42786    -0.00126    -0.00004
  Kinetic   138.50495   144.83007   168.55109     6.50681    -0.01721    -0.00024
  Fock        0.00000     0.00000     0.00000     0.00000     0.00000     0.00000
  -------------------------------------------------------------------------------------
  Total       0.17786     0.57855    -0.00095    -0.29781     0.00040    -0.00020
  in kB       0.00665     0.02162    -0.00004    -0.01113     0.00001    -0.00001
  external pressure =        0.01 kB  Pullay stress =        0.00 kB


 VOLUME and BASIS-vectors are now :
 -----------------------------------------------------------------------------
  energy-cutoff  :     1600.00
  volume of cell :    42875.00
      direct lattice vectors                 reciprocal lattice vectors
    35.000000000  0.000000000  0.000000000     0.028571429  0.000000000  0.000000000
     0.000000000 35.000000000  0.000000000     0.000000000  0.028571429  0.000000000
     0.000000000  0.000000000 35.000000000     0.000000000  0.000000000  0.028571429

  length of vectors
    35.000000000 35.000000000 35.000000000     0.028571429  0.028571429  0.028571429


 FORCES acting on ions
    electron-ion (+dipol)            ewald-force                    non-local-force                 convergence-correction
 -----------------------------------------------------------------------------------------------
   0.339E+02 0.554E+02 0.488E-01   -.599E+02 -.982E+02 -.865E-01   0.263E+02 0.422E+02 0.373E-01   -.121E-05 -.395E-05 -.451E-06
   0.331E+02 -.833E+02 -.586E-01   -.366E+02 0.921E+02 0.648E-01   0.317E+01 -.815E+01 -.575E-02   0.261E-06 -.153E-05 -.267E-07
   -.881E+02 -.561E+01 -.198E-01   0.965E+02 0.611E+01 0.217E-01   -.833E+01 -.587E+00 -.192E-02   -.160E-05 -.395E-06 -.285E-07
 -----------------------------------------------------------------------------------------------
   -.211E+02 -.335E+02 -.296E-01   0.000E+00 0.000E+00 0.347E-17   0.211E+02 0.335E+02 0.296E-01   -.255E-05 -.587E-05 -.506E-06
 
 
 POSITION                                       TOTAL-FORCE (eV/Angst)
 -----------------------------------------------------------------------------------
     34.44717     34.89830     34.99950         0.263981     -0.559045     -0.000393
     34.12824      0.80179      0.00014        -0.337832      0.652157      0.000448
      0.41266     34.99817     34.99975         0.073852     -0.093112     -0.000055
 -----------------------------------------------------------------------------------
    total drift:                               -0.000087      0.000082     -0.000009


--------------------------------------------------------------------------------------------------------



  FREE ENERGIE OF THE ION-ELECTRON SYSTEM (eV)
  ---------------------------------------------------
  free  energy   TOTEN  =       -14.24082313 eV

  energy  without entropy=      -14.24082313  energy(sigma->0) =      -14.24082313
 


--------------------------------------------------------------------------------------------------------


    POTLOK:  cpu time   33.1599: real time   33.2406


--------------------------------------------------------------------------------------------------------


 writing wavefunctions
     LOOP+:  cpu time 1737.9671: real time 1742.4213
    4ORBIT:  cpu time    0.0000: real time    0.0000

 total amount of memory used by VASP on root node  7279383. kBytes
========================================================================

   base      :      30000. kBytes
   nonl-proj :      45696. kBytes
   fftplans  :    2666593. kBytes
   grid      :    4503859. kBytes
   one-center:          1. kBytes
   wavefun   :      33234. kBytes
 
  
  
 General timing and accounting informations for this job:
 ========================================================
  
                  Total CPU time used (sec):     2549.818
                            User time (sec):     2281.517
                          System time (sec):      268.302
                         Elapsed time (sec):     2556.277
  
                   Maximum memory used (kb):    11396820.
                   Average memory used (kb):           0.
  
                          Minor page faults:       216876
                          Major page faults:            5
                 Voluntary context switches:          607
 
 PROFILE, used timers:      13
 =============================
 
 index                 routine                    time                            calls level
----------------------------------------------------------------------------------------------
    1    total_time                         2556.278123                                1   1
    2      w1_copy                               2.746141                           2504   2
    3      fftwav_mpi                          133.681760                            928   2
    4      fftext_mpi                            0.741129                              8   2
    5      overl                                 0.000661                           1457   2
    6      orth1                                 2.651723                            287   2
    7      lincom                                0.004414                              1   2
    8      eccp                                  4.504490                            208   2
    9      hamiltmu                            117.452602                            104   2
   10        vhamil                               29.972559                          832   3
   11        overl1                                0.000624                          832   3
   12        kinhamil                             75.529878                          832   3
   13          fftext_mpi                           74.744561                        832   4
 
 Flat profile
 ============
 
             routine name                   CPU           calls
 ---------------------------------------------------------------
 total_time                           2294.495203           1
 fftwav_mpi                            133.681760         928
 fftext_mpi                             75.485690         840
 vhamil                                 29.972559         832
 hamiltmu                               11.949540         104
 eccp                                    4.504490         208
 w1_copy                                 2.746141        2504
 orth1                                   2.651723         287
 kinhamil                                0.785317         832
 lincom                                  0.004414           1
 overl                                   0.000661        1457
 overl1                                  0.000624         832
 ---------------------------------------------------------------
  summed up times    2556.27812314034     
 
Profiling took   0.006487  0.004660  0.003332  0.003327 seconds
Profiling took   0.003866 seconds
