 vasp.5.4.1 24Jun15 (build Jan 02 2020 16:21:29) gamma-only                     
  
 executed on           IFC15_impi date 2020.04.11  21:36:54
 running on   12 total cores
 distrk:  each k-point on   12 cores,    1 groups
 distr:  one band on NCORES_PER_BAND=  12 cores,    1 groups


--------------------------------------------------------------------------------------------------------


 INCAR:
 POTCAR:    PAW_PBE C 08Apr2002                   
 POTCAR:    PAW_PBE H 15Jun2001                   

 ----------------------------------------------------------------------------- 
|                                                                             |
|           W    W    AA    RRRRR   N    N  II  N    N   GGGG   !!!           |
|           W    W   A  A   R    R  NN   N  II  NN   N  G    G  !!!           |
|           W    W  A    A  R    R  N N  N  II  N N  N  G       !!!           |
|           W WW W  AAAAAA  RRRRR   N  N N  II  N  N N  G  GGG   !            |
|           WW  WW  A    A  R   R   N   NN  II  N   NN  G    G                |
|           W    W  A    A  R    R  N    N  II  N    N   GGGG   !!!           |
|                                                                             |
|      For optimal performance we recommend to set                            |
|        NCORE= 4 - approx SQRT( number of cores)                             |
|      NCORE specifies how many cores store one orbital (NPAR=cpu/NCORE).     |
|      This setting can  greatly improve the performance of VASP for DFT.     |
|      The default, NPAR=number of cores might be grossly inefficient         |
|      on modern multi-core architectures or massively parallel machines.     |
|      Do your own testing !!!!                                               |
|      Unfortunately you need to use the default for GW and RPA calculations. |
|      (for HF NCORE is supported but not extensively tested yet)             |
|                                                                             |
 ----------------------------------------------------------------------------- 

 POTCAR:    PAW_PBE C 08Apr2002                   
   VRHFIN =C: s2p2                                                              
   LEXCH  = PE                                                                  
   EATOM  =   147.1560 eV,   10.8157 Ry                                         
                                                                                
   TITEL  = PAW_PBE C 08Apr2002                                                 
   LULTRA =        F    use ultrasoft PP ?                                      
   IUNSCR =        1    unscreen: 0-lin 1-nonlin 2-no                           
   RPACOR =    1.200    partial core radius                                     
   POMASS =   12.011; ZVAL   =    4.000    mass and valenz                      
   RCORE  =    1.500    outmost cutoff radius                                   
   RWIGS  =    1.630; RWIGS  =    0.863    wigner-seitz radius (au A)           
   ENMAX  =  400.000; ENMIN  =  300.000 eV                                      
   ICORE  =        2    local potential                                         
   LCOR   =        T    correct aug charges                                     
   LPAW   =        T    paw PP                                                  
   EAUG   =  644.873                                                            
   DEXC   =    0.000                                                            
   RMAX   =    1.529    core radius for proj-oper                               
   RAUG   =    1.300    factor for augmentation sphere                          
   RDEP   =    1.501    radius for radial grids                                 
   RDEPT  =    1.300    core radius for aug-charge                              
                                                                                
   Atomic configuration                                                         
    4 entries                                                                   
     n  l   j            E        occ.                                          
     1  0  0.50      -273.3789   2.0000                                         
     2  0  0.50       -13.7508   2.0000                                         
     2  1  0.50        -5.2854   2.0000                                         
     3  2  1.50        -5.4423   0.0000                                         
   Description                                                                  
     l       E           TYP  RCUT    TYP  RCUT                                 
     0    -13.7508458     23  1.200                                             
     0     -8.2022199     23  1.200                                             
     1     -5.2854383     23  1.500                                             
     1     34.0145650     23  1.500                                             
     2     -5.4423304      7  1.500                                             
  local pseudopotential read in
  partial core-charges read in
  partial kinetic energy density read in
  atomic valenz-charges read in
  non local Contribution for L=           0  read in
    real space projection operators read in
  non local Contribution for L=           0  read in
    real space projection operators read in
  non local Contribution for L=           1  read in
    real space projection operators read in
  non local Contribution for L=           1  read in
    real space projection operators read in
    PAW grid and wavefunctions read in
 
   number of l-projection  operators is LMAX  =           4
   number of lm-projection operators is LMMAX =           8
 
 POTCAR:    PAW_PBE H 15Jun2001                   
   VRHFIN =H: ultrasoft test                                                    
   LEXCH  = PE                                                                  
   EATOM  =    12.4884 eV,    0.9179 Ry                                         
                                                                                
   TITEL  = PAW_PBE H 15Jun2001                                                 
   LULTRA =        F    use ultrasoft PP ?                                      
   IUNSCR =        0    unscreen: 0-lin 1-nonlin 2-no                           
   RPACOR =    0.000    partial core radius                                     
   POMASS =    1.000; ZVAL   =    1.000    mass and valenz                      
   RCORE  =    1.100    outmost cutoff radius                                   
   RWIGS  =    0.700; RWIGS  =    0.370    wigner-seitz radius (au A)           
   ENMAX  =  250.000; ENMIN  =  200.000 eV                                      
   RCLOC  =    0.701    cutoff for local pot                                    
   LCOR   =        T    correct aug charges                                     
   LPAW   =        T    paw PP                                                  
   EAUG   =  400.000                                                            
   RMAX   =    1.123    core radius for proj-oper                               
   RAUG   =    1.200    factor for augmentation sphere                          
   RDEP   =    1.112    radius for radial grids                                 
   RDEPT  =    0.926    core radius for aug-charge                              
                                                                                
   Atomic configuration                                                         
    2 entries                                                                   
     n  l   j            E        occ.                                          
     1  0  0.50        -6.4927   1.0000                                         
     2  1  0.50        -3.4015   0.0000                                         
   Description                                                                  
     l       E           TYP  RCUT    TYP  RCUT                                 
     0     -6.4927494     23  1.100                                             
     0      6.8029130     23  1.100                                             
     1     -4.0817478     23  1.100                                             
  local pseudopotential read in
  atomic valenz-charges read in
  non local Contribution for L=           0  read in
    real space projection operators read in
  non local Contribution for L=           0  read in
    real space projection operators read in
  non local Contribution for L=           1  read in
    real space projection operators read in
    PAW grid and wavefunctions read in
 
   number of l-projection  operators is LMAX  =           3
   number of lm-projection operators is LMMAX =           5
 
  PAW_PBE C 08Apr2002                   :
 energy of atom  1       EATOM= -147.1560
 kinetic energy error for atom=    0.0002 (will be added to EATOM!!)
  PAW_PBE H 15Jun2001                   :
 energy of atom  2       EATOM=  -12.4884
 kinetic energy error for atom=    0.0000 (will be added to EATOM!!)
 
 
 POSCAR: C H                                     
  positions in cartesian coordinates
  No initial velocities read in
 exchange correlation table for  LEXCH =        8
   RHO(1)=    0.500       N(1)  =     2000
   RHO(2)=  100.500       N(2)  =     4000
 


--------------------------------------------------------------------------------------------------------


 ion  position               nearest neighbor table
   1  0.020  0.032  0.002-   7 1.08   2 1.39   6 1.39
   2  0.036  0.995  0.004-   8 1.08   1 1.39   3 1.39
   3  0.012  0.964  0.001-   9 1.08   2 1.39   4 1.39
   4  0.973  0.968  0.997-  10 1.08   3 1.39   5 1.39
   5  0.957  0.005  0.995-  11 1.08   6 1.39   4 1.39
   6  0.981  0.037  0.998-  12 1.08   5 1.39   1 1.39
   7  0.039  0.057  0.004-   1 1.08
   8  0.066  0.992  0.007-   2 1.08
   9  0.024  0.935  0.003-   3 1.08
  10  0.954  0.944  0.995-   4 1.08
  11  0.927  0.009  0.992-   5 1.08
  12  0.969  0.065  0.996-   6 1.08
 
  LATTYP: Found a simple cubic cell.
 ALAT       =    35.0000000000
  
  Lattice vectors:
  
 A1 = (  35.0000000000,   0.0000000000,   0.0000000000)
 A2 = (   0.0000000000,  35.0000000000,   0.0000000000)
 A3 = (   0.0000000000,   0.0000000000,  35.0000000000)


Analysis of symmetry for initial positions (statically):
=====================================================================
 Subroutine PRICEL returns:
 Original cell was already a primitive cell.
 

 Routine SETGRP: Setting up the symmetry group for a 
 simple cubic supercell.


 Subroutine GETGRP returns: Found  1 space group operations
 (whereof  1 operations were pure point group operations)
 out of a pool of 48 trial point group operations.


The static configuration has the point symmetry C_1 .


Analysis of symmetry for dynamics (positions and initial velocities):
=====================================================================
 Subroutine PRICEL returns:
 Original cell was already a primitive cell.
 

 Routine SETGRP: Setting up the symmetry group for a 
 simple cubic supercell.


 Subroutine GETGRP returns: Found  1 space group operations
 (whereof  1 operations were pure point group operations)
 out of a pool of 48 trial point group operations.


The dynamic configuration has the point symmetry C_1 .
 
 
 KPOINTS: automatic mesh                          

Automatic generation of k-mesh.
Space group operators:
 irot       det(A)        alpha          n_x          n_y          n_z        tau_x        tau_y        tau_z
    1     1.000000     0.000000     1.000000     0.000000     0.000000     0.000000     0.000000     0.000000
 
 Subroutine IBZKPT returns following result:
 ===========================================
 
 Found      1 irreducible k-points:
 
 Following reciprocal coordinates:
            Coordinates               Weight
  0.000000  0.000000  0.000000      1.000000
 
 Following cartesian coordinates:
            Coordinates               Weight
  0.000000  0.000000  0.000000      1.000000
 


--------------------------------------------------------------------------------------------------------




 Dimension of arrays:
   k-points           NKPTS =      1   k-points in BZ     NKDIM =      1   number of bands    NBANDS=     22
   number of dos      NEDOS =    301   number of ions     NIONS =     12
   non local maximal  LDIM  =      4   non local SUM 2l+1 LMDIM =      8
   total plane-waves  NPLWV = ******
   max r-space proj   IRMAX =      1   max aug-charges    IRDMAX=  30635
   dimension x,y,z NGX =   480 NGY =  480 NGZ =  480
   dimension x,y,z NGXF=   960 NGYF=  960 NGZF=  960
   support grid    NGXF=   960 NGYF=  960 NGZF=  960
   ions per type =               6   6
 NGX,Y,Z   is equivalent  to a cutoff of  22.80, 22.80, 22.80 a.u.
 NGXF,Y,Z  is equivalent  to a cutoff of  45.60, 45.60, 45.60 a.u.


 I would recommend the setting:
   dimension x,y,z NGX =   457 NGY =  457 NGZ =  457
 SYSTEM =  C                                       
 POSCAR =  C H                                     

 Startparameter for this run:
   NWRITE =      2    write-flag & timer
   PREC   = acc       normal or accurate (medium, high low for compatibility)
   ISTART =      0    job   : 0-new  1-cont  2-samecut
   ICHARG =      2    charge: 1-file 2-atom 10-const
   ISPIN  =      1    spin polarized calculation?
   LNONCOLLINEAR =      F non collinear calculations
   LSORBIT =      F    spin-orbit coupling
   INIWAV =      1    electr: 0-lowe 1-rand  2-diag
   LASPH  =      T    aspherical Exc in radial PAW
   METAGGA=      F    non-selfconsistent MetaGGA calc.

 Electronic Relaxation 1
   ENCUT  = 1600.0 eV 117.60 Ry   10.84 a.u. 114.15114.15114.15*2*pi/ulx,y,z
   ENINI  = 1600.0     initial cutoff
   ENAUG  =  644.9 eV  augmentation charge cutoff
   NELM   =     60;   NELMIN=  2; NELMDL= -5     # of ELM steps 
   EDIFF  = 0.1E-06   stopping-criterion for ELM
   LREAL  =      F    real-space projection
   NLSPLINE    = F    spline interpolate recip. space projectors
   LCOMPAT=      F    compatible to vasp.4.4
   GGA_COMPAT  = T    GGA compatible to vasp.4.4-vasp.4.6
   LMAXPAW     = -100 max onsite density
   LMAXMIX     =    2 max onsite mixed and CHGCAR
   VOSKOWN=      0    Vosko Wilk Nusair interpolation
   ROPT   =    0.00000   0.00000
 Ionic relaxation
   EDIFFG = 0.1E-05   stopping-criterion for IOM
   NSW    =      0    number of steps for IOM
   NBLOCK =      1;   KBLOCK =      1    inner block; outer block 
   IBRION =     -1    ionic relax: 0-MD 1-quasi-New 2-CG
   NFREE  =      0    steps in history (QN), initial steepest desc. (CG)
   ISIF   =      2    stress and relaxation
   IWAVPR =     10    prediction:  0-non 1-charg 2-wave 3-comb
   ISYM   =      2    0-nonsym 1-usesym 2-fastsym
   LCORR  =      T    Harris-Foulkes like correction to forces

   POTIM  = 0.5000    time-step for ionic-motion
   TEIN   =    0.0    initial temperature
   TEBEG  =    0.0;   TEEND  =   0.0 temperature during run
   SMASS  =  -3.00    Nose mass-parameter (am)
   estimated Nose-frequenzy (Omega)   =  0.10E-29 period in steps =****** mass=  -0.280E-25a.u.
   SCALEE = 1.0000    scale energy and forces
   NPACO  =    256;   APACO  = 16.0  distance and # of slots for P.C.
   PSTRESS=    0.0 pullay stress

  Mass of Ions in am
   POMASS =  12.01  1.00
  Ionic Valenz
   ZVAL   =   4.00  1.00
  Atomic Wigner-Seitz radii
   RWIGS  =  -1.00 -1.00
  virtual crystal weights 
   VCA    =   1.00  1.00
   NELECT =      30.0000    total number of electrons
   NUPDOWN=      -1.0000    fix difference up-down

 DOS related values:
   EMIN   =  10.00;   EMAX   =-10.00  energy-range for DOS
   EFERMI =   0.00
   ISMEAR =     0;   SIGMA  =   0.01  broadening in eV -4-tet -1-fermi 0-gaus

 Electronic relaxation 2 (details)
   IALGO  =     38    algorithm
   LDIAG  =      T    sub-space diagonalisation (order eigenvalues)
   LSUBROT=      F    optimize rotation matrix (better conditioning)
   TURBO    =      0    0=normal 1=particle mesh
   IRESTART =      0    0=no restart 2=restart with 2 vectors
   NREBOOT  =      0    no. of reboots
   NMIN     =      0    reboot dimension
   EREF     =   0.00    reference energy to select bands
   IMIX   =      4    mixing-type and parameters
     AMIX     =   0.40;   BMIX     =  1.00
     AMIX_MAG =   1.60;   BMIX_MAG =  1.00
     AMIN     =   0.10
     WC   =   100.;   INIMIX=   1;  MIXPRE=   1;  MAXMIX= -45

 Intra band minimization:
   WEIMIN = 0.0000     energy-eigenvalue tresh-hold
   EBREAK =  0.11E-08  absolut break condition
   DEPER  =   0.30     relativ break condition  

   TIME   =   0.40     timestep for ELM

  volume/ion in A,a.u.               =    3572.92     24111.23
  Fermi-wavevector in a.u.,A,eV,Ry     =   0.145338  0.274650  0.287399  0.021123
  Thomas-Fermi vector in A             =   0.812913
 
 Write flags
   LWAVE  =      T    write WAVECAR
   LCHARG =      T    write CHGCAR
   LVTOT  =      F    write LOCPOT, total local potential
   LVHAR  =      F    write LOCPOT, Hartree potential only
   LELF   =      F    write electronic localiz. function (ELF)
   LORBIT =      0    0 simple, 1 ext, 2 COOP (PROOUT)


 Dipole corrections
   LMONO  =      F    monopole corrections only (constant potential shift)
   LDIPOL =      F    correct potential (dipole corrections)
   IDIPOL =      0    1-x, 2-y, 3-z, 4-all directions 
   EPSILON=  1.0000000 bulk dielectric constant

 Exchange correlation treatment:
   GGA     =    --    GGA type
   LEXCH   =     8    internal setting for exchange type
   VOSKOWN=      0    Vosko Wilk Nusair interpolation
   LHFCALC =     F    Hartree Fock is set to
   LHFONE  =     F    Hartree Fock one center treatment
   AEXX    =    0.0000 exact exchange contribution

 Linear response parameters
   LEPSILON=     F    determine dielectric tensor
   LRPA    =     F    only Hartree local field effects (RPA)
   LNABLA  =     F    use nabla operator in PAW spheres
   LVEL    =     F    velocity operator in full k-point grid
   LINTERFAST=   F  fast interpolation
   KINTER  =     0    interpolate to denser k-point grid
   CSHIFT  =0.1000    complex shift for real part using Kramers Kronig
   OMEGAMAX=  -1.0    maximum frequency
   DEG_THRESHOLD= 0.2000000E-02 threshold for treating states as degnerate
   RTIME   =    0.100 relaxation time in fs

 Orbital magnetization related:
   ORBITALMAG=     F  switch on orbital magnetization
   LCHIMAG   =     F  perturbation theory with respect to B field
   DQ        =  0.001000  dq finite difference perturbation B field



--------------------------------------------------------------------------------------------------------


 Static calculation
 charge density and potential will be updated during run
 non-spin polarized calculation
 Variant of blocked Davidson
 Davidson routine will perform the subspace rotation
 perform sub-space diagonalisation
    after iterative eigenvector-optimisation
 modified Broyden-mixing scheme, WC =      100.0
 initial mixing is a Kerker type mixing with AMIX =  0.4000 and BMIX =      1.0000
 Hartree-type preconditioning will be used
 using additional bands            7
 reciprocal scheme for non local part
 use partial core corrections
 calculate Harris-corrections to forces 
   (improved forces if not selfconsistent)
 use gradient corrections 
 use of overlap-Matrix (Vanderbilt PP)
 Gauss-broadening in eV      SIGMA  =   0.01


--------------------------------------------------------------------------------------------------------


  energy-cutoff  :     1600.00
  volume of cell :    42875.00
      direct lattice vectors                 reciprocal lattice vectors
    35.000000000  0.000000000  0.000000000     0.028571429  0.000000000  0.000000000
     0.000000000 35.000000000  0.000000000     0.000000000  0.028571429  0.000000000
     0.000000000  0.000000000 35.000000000     0.000000000  0.000000000  0.028571429

  length of vectors
    35.000000000 35.000000000 35.000000000     0.028571429  0.028571429  0.028571429


 
 k-points in units of 2pi/SCALE and weight: automatic mesh                          
   0.00000000  0.00000000  0.00000000       1.000
 
 k-points in reciprocal lattice and weights: automatic mesh                          
   0.00000000  0.00000000  0.00000000       1.000
 
 position of ions in fractional coordinates (direct lattice) 
   0.02036130  0.03202845  0.00172974
   0.03594959  0.99544995  0.00354953
   0.01219671  0.96358495  0.00121858
   0.97286920  0.96828360  0.99713390
   0.95727070  0.00488716  0.99538440
   0.98103350  0.03676123  0.99761710
   0.03879548  0.05675426  0.00364963
   0.06642727  0.99179715  0.00704980
   0.02429842  0.93518764  0.00270714
   0.95444412  0.94353504  0.99532247
   0.92674906  0.00854918  0.99217991
   0.96894569  0.06517143  0.99620325
 
 position of ions in cartesian coordinates  (Angst):
   0.71264533  1.12099570  0.06054078
   1.25823573 34.84074810  0.12423352
   0.42688496 33.72547334  0.04265043
  34.05042215 33.88992594 34.89968640
  33.50447436  0.17105056 34.83845398
  34.33617240  1.28664289 34.91659857
   1.35784165  1.98639917  0.12773717
   2.32495428 34.71290012  0.24674304
   0.85044465 32.73156732  0.09474995
  33.40554430 33.02372630 34.83628652
  32.43621721  0.29922115 34.72629689
  33.91309930  2.28100020 34.86711386
 


--------------------------------------------------------------------------------------------------------


 use parallel FFT for wavefunctions z direction half grid
 k-point  1 :   0.0000 0.0000 0.0000  plane waves: 3115599

 maximum and minimum number of plane-waves per node :    259651   259618

 maximum number of plane-waves:   3115599
 maximum index in each direction: 
   IXMAX=  114   IYMAX=  114   IZMAX=  114
   IXMIN= -114   IYMIN= -114   IZMIN=    0

 NGX is ok and might be reduce to 458
 NGY is ok and might be reduce to 458
 NGZ is ok and might be reduce to 458

 parallel 3D FFT for wavefunctions:
    minimum data exchange during FFTs selected (reduces bandwidth)
 parallel 3D FFT for charge:
    minimum data exchange during FFTs selected (reduces bandwidth)


 total amount of memory used by VASP on root node  7374933. kBytes
========================================================================

   base      :      30000. kBytes
   nonl-proj :      83085. kBytes
   fftplans  :    2666593. kBytes
   grid      :    4503859. kBytes
   one-center:          1. kBytes
   wavefun   :      91395. kBytes
 
     INWAV:  cpu time    0.0000: real time    0.0000
 Broyden mixing: mesh for mixing (old mesh)
   NGX =229   NGY =229   NGZ =229
  (NGX  =960   NGY  =960   NGZ  =960)
  gives a total of ****** points

 initial charge density was supplied:
 charge density of overlapping atoms calculated
 number of electron      30.0000000 magnetization 
 keeping initial charge density in first step


--------------------------------------------------------------------------------------------------------


 Maximum index for augmentation-charges         2562 (set IRDMAX)


--------------------------------------------------------------------------------------------------------


 First call to EWALD:  gamma=   0.051
 Maximum number of real-space cells 3x 3x 3
 Maximum number of reciprocal cells 3x 3x 3

 FEWALD executed in parallel
    FEWALD:  cpu time    0.0016: real time    0.0016


----------------------------------------- Iteration    1(   1)  ---------------------------------------


    POTLOK:  cpu time   33.6937: real time   33.7767
    SETDIJ:  cpu time    0.0588: real time    0.0589
     EDDAV:  cpu time   24.6118: real time   24.6730
       DOS:  cpu time    0.0000: real time    0.0000
    --------------------------------------------
      LOOP:  cpu time   58.3662: real time   58.5127

 eigenvalue-minimisations  :    44
 total energy-change (2. order) : 0.3850951E+03  (-0.4810213E+03)
 number of electron      30.0000000 magnetization 
 augmentation part       30.0000000 magnetization 

 Free energy of the ion-electron system (eV)
  ---------------------------------------------------
  alpha Z        PSCENC =         0.09644577
  Ewald energy   TEWEN  =      2286.97567437
  -Hartree energ DENC   =     -2896.25912057
  -exchange      EXHF   =         0.00000000
  -V(xc)+E(xc)   XCENC  =        91.45440655
  PAW double counting   =       663.93644290     -667.40614445
  entropy T*S    EENTRO =        -0.00000000
  eigenvalues    EBANDS =       -51.56750613
  atomic energy  EATOM  =       957.86486381
  Solvation  Ediel_sol  =         0.00000000
  ---------------------------------------------------
  free energy    TOTEN  =       385.09506224 eV

  energy without entropy =      385.09506224  energy(sigma->0) =      385.09506224


--------------------------------------------------------------------------------------------------------




----------------------------------------- Iteration    1(   2)  ---------------------------------------


     EDDAV:  cpu time   41.2005: real time   41.3024
       DOS:  cpu time    0.0000: real time    0.0000
    --------------------------------------------
      LOOP:  cpu time   41.2027: real time   41.3076

 eigenvalue-minimisations  :    88
 total energy-change (2. order) :-0.2237532E+03  (-0.2192054E+03)
 number of electron      30.0000000 magnetization 
 augmentation part       30.0000000 magnetization 

 Free energy of the ion-electron system (eV)
  ---------------------------------------------------
  alpha Z        PSCENC =         0.09644577
  Ewald energy   TEWEN  =      2286.97567437
  -Hartree energ DENC   =     -2896.25912057
  -exchange      EXHF   =         0.00000000
  -V(xc)+E(xc)   XCENC  =        91.45440655
  PAW double counting   =       663.93644290     -667.40614445
  entropy T*S    EENTRO =        -0.00000000
  eigenvalues    EBANDS =      -275.32074610
  atomic energy  EATOM  =       957.86486381
  Solvation  Ediel_sol  =         0.00000000
  ---------------------------------------------------
  free energy    TOTEN  =       161.34182228 eV

  energy without entropy =      161.34182228  energy(sigma->0) =      161.34182228


--------------------------------------------------------------------------------------------------------




----------------------------------------- Iteration    1(   3)  ---------------------------------------


     EDDAV:  cpu time   32.1022: real time   32.1819
       DOS:  cpu time    0.0000: real time    0.0000
    --------------------------------------------
      LOOP:  cpu time   32.1045: real time   32.1866

 eigenvalue-minimisations  :    64
 total energy-change (2. order) :-0.1863098E+03  (-0.1790682E+03)
 number of electron      30.0000000 magnetization 
 augmentation part       30.0000000 magnetization 

 Free energy of the ion-electron system (eV)
  ---------------------------------------------------
  alpha Z        PSCENC =         0.09644577
  Ewald energy   TEWEN  =      2286.97567437
  -Hartree energ DENC   =     -2896.25912057
  -exchange      EXHF   =         0.00000000
  -V(xc)+E(xc)   XCENC  =        91.45440655
  PAW double counting   =       663.93644290     -667.40614445
  entropy T*S    EENTRO =        -0.00000000
  eigenvalues    EBANDS =      -461.63050089
  atomic energy  EATOM  =       957.86486381
  Solvation  Ediel_sol  =         0.00000000
  ---------------------------------------------------
  free energy    TOTEN  =       -24.96793251 eV

  energy without entropy =      -24.96793251  energy(sigma->0) =      -24.96793251


--------------------------------------------------------------------------------------------------------




----------------------------------------- Iteration    1(   4)  ---------------------------------------


     EDDAV:  cpu time   26.8463: real time   26.9129
       DOS:  cpu time    0.0000: real time    0.0000
    --------------------------------------------
      LOOP:  cpu time   26.8482: real time   26.9176

 eigenvalue-minimisations  :    50
 total energy-change (2. order) :-0.5533220E+02  (-0.5528737E+02)
 number of electron      30.0000000 magnetization 
 augmentation part       30.0000000 magnetization 

 Free energy of the ion-electron system (eV)
  ---------------------------------------------------
  alpha Z        PSCENC =         0.09644577
  Ewald energy   TEWEN  =      2286.97567437
  -Hartree energ DENC   =     -2896.25912057
  -exchange      EXHF   =         0.00000000
  -V(xc)+E(xc)   XCENC  =        91.45440655
  PAW double counting   =       663.93644290     -667.40614445
  entropy T*S    EENTRO =        -0.00000000
  eigenvalues    EBANDS =      -516.96270014
  atomic energy  EATOM  =       957.86486381
  Solvation  Ediel_sol  =         0.00000000
  ---------------------------------------------------
  free energy    TOTEN  =       -80.30013176 eV

  energy without entropy =      -80.30013176  energy(sigma->0) =      -80.30013176


--------------------------------------------------------------------------------------------------------




----------------------------------------- Iteration    1(   5)  ---------------------------------------


     EDDAV:  cpu time   29.1144: real time   29.1866
       DOS:  cpu time    0.0000: real time    0.0000
    CHARGE:  cpu time    5.0663: real time    5.0788
    MIXING:  cpu time    0.9532: real time    0.9556
    --------------------------------------------
      LOOP:  cpu time   35.1362: real time   35.2264

 eigenvalue-minimisations  :    56
 total energy-change (2. order) :-0.4160548E+01  (-0.4157950E+01)
 number of electron      30.0000000 magnetization 
 augmentation part        0.7970392 magnetization 

 Broyden mixing:
  rms(total) = 0.14187E+01    rms(broyden)= 0.14187E+01
  rms(prec ) = 0.14662E+01
  weight for this iteration     100.00

 Free energy of the ion-electron system (eV)
  ---------------------------------------------------
  alpha Z        PSCENC =         0.09644577
  Ewald energy   TEWEN  =      2286.97567437
  -Hartree energ DENC   =     -2896.25912057
  -exchange      EXHF   =         0.00000000
  -V(xc)+E(xc)   XCENC  =        91.45440655
  PAW double counting   =       663.93644290     -667.40614445
  entropy T*S    EENTRO =        -0.00000000
  eigenvalues    EBANDS =      -521.12324774
  atomic energy  EATOM  =       957.86486381
  Solvation  Ediel_sol  =         0.00000000
  ---------------------------------------------------
  free energy    TOTEN  =       -84.46067937 eV

  energy without entropy =      -84.46067937  energy(sigma->0) =      -84.46067937


--------------------------------------------------------------------------------------------------------




----------------------------------------- Iteration    1(   6)  ---------------------------------------


    POTLOK:  cpu time   33.0789: real time   33.1603
    SETDIJ:  cpu time    0.0580: real time    0.0581
     EDDAV:  cpu time   29.1299: real time   29.2020
       DOS:  cpu time    0.0000: real time    0.0000
    CHARGE:  cpu time    4.9530: real time    4.9653
    MIXING:  cpu time    1.0033: real time    1.0058
    --------------------------------------------
      LOOP:  cpu time   68.2250: real time   68.3964

 eigenvalue-minimisations  :    56
 total energy-change (2. order) : 0.6308201E+01  (-0.7792992E+00)
 number of electron      30.0000000 magnetization 
 augmentation part        0.7536003 magnetization 

 Broyden mixing:
  rms(total) = 0.78461E+00    rms(broyden)= 0.78461E+00
  rms(prec ) = 0.80680E+00
  weight for this iteration     100.00

 eigenvalues of (default mixing * dielectric matrix)
  average eigenvalue GAMMA=   1.8794
  1.8794

 Free energy of the ion-electron system (eV)
  ---------------------------------------------------
  alpha Z        PSCENC =         0.09644577
  Ewald energy   TEWEN  =      2286.97567437
  -Hartree energ DENC   =     -2959.53399638
  -exchange      EXHF   =         0.00000000
  -V(xc)+E(xc)   XCENC  =        94.30760902
  PAW double counting   =      1250.32601700    -1254.39754516
  entropy T*S    EENTRO =        -0.00000000
  eigenvalues    EBANDS =      -453.79154699
  atomic energy  EATOM  =       957.86486381
  Solvation  Ediel_sol  =         0.00000000
  ---------------------------------------------------
  free energy    TOTEN  =       -78.15247855 eV

  energy without entropy =      -78.15247855  energy(sigma->0) =      -78.15247855


--------------------------------------------------------------------------------------------------------




----------------------------------------- Iteration    1(   7)  ---------------------------------------


    POTLOK:  cpu time   33.0493: real time   33.1307
    SETDIJ:  cpu time    0.0490: real time    0.0491
     EDDAV:  cpu time   29.1619: real time   29.2340
       DOS:  cpu time    0.0000: real time    0.0000
    CHARGE:  cpu time    4.9556: real time    4.9679
    MIXING:  cpu time    1.0276: real time    1.0302
    --------------------------------------------
      LOOP:  cpu time   68.2453: real time   68.4167

 eigenvalue-minimisations  :    56
 total energy-change (2. order) : 0.1905117E+01  (-0.8144435E+00)
 number of electron      30.0000000 magnetization 
 augmentation part        0.7018455 magnetization 

 Broyden mixing:
  rms(total) = 0.30729E+00    rms(broyden)= 0.30729E+00
  rms(prec ) = 0.31255E+00
  weight for this iteration     100.00

 eigenvalues of (default mixing * dielectric matrix)
  average eigenvalue GAMMA=   2.1766
  2.1766  2.1766

 Free energy of the ion-electron system (eV)
  ---------------------------------------------------
  alpha Z        PSCENC =         0.09644577
  Ewald energy   TEWEN  =      2286.97567437
  -Hartree energ DENC   =     -3024.89619492
  -exchange      EXHF   =         0.00000000
  -V(xc)+E(xc)   XCENC  =        97.59696161
  PAW double counting   =      2182.57024866    -2187.05269955
  entropy T*S    EENTRO =        -0.00000000
  eigenvalues    EBANDS =      -389.40266081
  atomic energy  EATOM  =       957.86486381
  Solvation  Ediel_sol  =         0.00000000
  ---------------------------------------------------
  free energy    TOTEN  =       -76.24736107 eV

  energy without entropy =      -76.24736107  energy(sigma->0) =      -76.24736107


--------------------------------------------------------------------------------------------------------




----------------------------------------- Iteration    1(   8)  ---------------------------------------


    POTLOK:  cpu time   33.1586: real time   33.2402
    SETDIJ:  cpu time    0.0586: real time    0.0587
     EDDAV:  cpu time   29.9496: real time   30.0238
       DOS:  cpu time    0.0000: real time    0.0000
    CHARGE:  cpu time    4.9650: real time    4.9773
    MIXING:  cpu time    1.0468: real time    1.0494
    --------------------------------------------
      LOOP:  cpu time   69.1803: real time   69.3540

 eigenvalue-minimisations  :    58
 total energy-change (2. order) : 0.1135449E+00  (-0.1069942E+00)
 number of electron      30.0000000 magnetization 
 augmentation part        0.7121121 magnetization 

 Broyden mixing:
  rms(total) = 0.97065E-01    rms(broyden)= 0.97065E-01
  rms(prec ) = 0.10516E+00
  weight for this iteration     100.00

 eigenvalues of (default mixing * dielectric matrix)
  average eigenvalue GAMMA=   1.7078
  2.4484  1.3375  1.3375

 Free energy of the ion-electron system (eV)
  ---------------------------------------------------
  alpha Z        PSCENC =         0.09644577
  Ewald energy   TEWEN  =      2286.97567437
  -Hartree energ DENC   =     -3026.94017385
  -exchange      EXHF   =         0.00000000
  -V(xc)+E(xc)   XCENC  =        97.87348740
  PAW double counting   =      2535.90866657    -2540.10601304
  entropy T*S    EENTRO =        -0.00000000
  eigenvalues    EBANDS =      -387.80676725
  atomic energy  EATOM  =       957.86486381
  Solvation  Ediel_sol  =         0.00000000
  ---------------------------------------------------
  free energy    TOTEN  =       -76.13381622 eV

  energy without entropy =      -76.13381622  energy(sigma->0) =      -76.13381622


--------------------------------------------------------------------------------------------------------




----------------------------------------- Iteration    1(   9)  ---------------------------------------


    POTLOK:  cpu time   33.1463: real time   33.2279
    SETDIJ:  cpu time    0.0581: real time    0.0582
     EDDAV:  cpu time   32.2063: real time   32.2859
       DOS:  cpu time    0.0000: real time    0.0000
    CHARGE:  cpu time    4.9596: real time    4.9719
    MIXING:  cpu time    1.0796: real time    1.0823
    --------------------------------------------
      LOOP:  cpu time   71.4517: real time   71.6308

 eigenvalue-minimisations  :    64
 total energy-change (2. order) : 0.7195605E-01  (-0.2733534E-01)
 number of electron      30.0000000 magnetization 
 augmentation part        0.7020364 magnetization 

 Broyden mixing:
  rms(total) = 0.24806E-01    rms(broyden)= 0.24806E-01
  rms(prec ) = 0.31567E-01
  weight for this iteration     100.00

 eigenvalues of (default mixing * dielectric matrix)
  average eigenvalue GAMMA=   1.5099
  2.2607  1.7861  0.9964  0.9964

 Free energy of the ion-electron system (eV)
  ---------------------------------------------------
  alpha Z        PSCENC =         0.09644577
  Ewald energy   TEWEN  =      2286.97567437
  -Hartree energ DENC   =     -3037.33091804
  -exchange      EXHF   =         0.00000000
  -V(xc)+E(xc)   XCENC  =        98.26553729
  PAW double counting   =      2599.11138194    -2603.39951435
  entropy T*S    EENTRO =        -0.00000000
  eigenvalues    EBANDS =      -377.64533096
  atomic energy  EATOM  =       957.86486381
  Solvation  Ediel_sol  =         0.00000000
  ---------------------------------------------------
  free energy    TOTEN  =       -76.06186017 eV

  energy without entropy =      -76.06186017  energy(sigma->0) =      -76.06186017


--------------------------------------------------------------------------------------------------------




----------------------------------------- Iteration    1(  10)  ---------------------------------------


    POTLOK:  cpu time   33.1444: real time   33.2259
    SETDIJ:  cpu time    0.0638: real time    0.0639
     EDDAV:  cpu time   35.3043: real time   35.3916
       DOS:  cpu time    0.0000: real time    0.0000
    CHARGE:  cpu time    4.9540: real time    4.9663
    MIXING:  cpu time    1.1230: real time    1.1259
    --------------------------------------------
      LOOP:  cpu time   74.5912: real time   74.7781

 eigenvalue-minimisations  :    72
 total energy-change (2. order) : 0.1956149E-02  (-0.7393108E-03)
 number of electron      30.0000000 magnetization 
 augmentation part        0.7016667 magnetization 

 Broyden mixing:
  rms(total) = 0.17454E-01    rms(broyden)= 0.17454E-01
  rms(prec ) = 0.23981E-01
  weight for this iteration     100.00

 eigenvalues of (default mixing * dielectric matrix)
  average eigenvalue GAMMA=   1.6244
  2.1987  2.1987  1.0623  1.0623  1.6000

 Free energy of the ion-electron system (eV)
  ---------------------------------------------------
  alpha Z        PSCENC =         0.09644577
  Ewald energy   TEWEN  =      2286.97567437
  -Hartree energ DENC   =     -3039.15714569
  -exchange      EXHF   =         0.00000000
  -V(xc)+E(xc)   XCENC  =        98.26854573
  PAW double counting   =      2574.15614967    -2578.43152453
  entropy T*S    EENTRO =        -0.00000000
  eigenvalues    EBANDS =      -375.83291315
  atomic energy  EATOM  =       957.86486381
  Solvation  Ediel_sol  =         0.00000000
  ---------------------------------------------------
  free energy    TOTEN  =       -76.05990402 eV

  energy without entropy =      -76.05990402  energy(sigma->0) =      -76.05990402


--------------------------------------------------------------------------------------------------------




----------------------------------------- Iteration    1(  11)  ---------------------------------------


    POTLOK:  cpu time   33.1961: real time   33.2777
    SETDIJ:  cpu time    0.0645: real time    0.0647
     EDDAV:  cpu time   27.5531: real time   27.6213
       DOS:  cpu time    0.0000: real time    0.0000
    CHARGE:  cpu time    4.9523: real time    4.9646
    MIXING:  cpu time    1.1711: real time    1.1740
    --------------------------------------------
      LOOP:  cpu time   66.9388: real time   67.1067

 eigenvalue-minimisations  :    52
 total energy-change (2. order) : 0.6338172E-02  (-0.9210752E-03)
 number of electron      30.0000000 magnetization 
 augmentation part        0.7002968 magnetization 

 Broyden mixing:
  rms(total) = 0.93594E-02    rms(broyden)= 0.93594E-02
  rms(prec ) = 0.13609E-01
  weight for this iteration     100.00

 eigenvalues of (default mixing * dielectric matrix)
  average eigenvalue GAMMA=   1.7581
  3.4602  2.4055  1.6063  1.1061  1.1061  0.8645

 Free energy of the ion-electron system (eV)
  ---------------------------------------------------
  alpha Z        PSCENC =         0.09644577
  Ewald energy   TEWEN  =      2286.97567437
  -Hartree energ DENC   =     -3044.91974219
  -exchange      EXHF   =         0.00000000
  -V(xc)+E(xc)   XCENC  =        98.38590547
  PAW double counting   =      2557.71813462    -2561.98874710
  entropy T*S    EENTRO =        -0.00000000
  eigenvalues    EBANDS =      -370.18610060
  atomic energy  EATOM  =       957.86486381
  Solvation  Ediel_sol  =         0.00000000
  ---------------------------------------------------
  free energy    TOTEN  =       -76.05356584 eV

  energy without entropy =      -76.05356584  energy(sigma->0) =      -76.05356584


--------------------------------------------------------------------------------------------------------




----------------------------------------- Iteration    1(  12)  ---------------------------------------


    POTLOK:  cpu time   33.2030: real time   33.2847
    SETDIJ:  cpu time    0.0511: real time    0.0512
     EDDAV:  cpu time   32.1523: real time   32.2318
       DOS:  cpu time    0.0000: real time    0.0000
    CHARGE:  cpu time    4.9498: real time    4.9620
    MIXING:  cpu time    1.2104: real time    1.2134
    --------------------------------------------
      LOOP:  cpu time   71.5685: real time   71.7480

 eigenvalue-minimisations  :    64
 total energy-change (2. order) : 0.3861214E-02  (-0.3614856E-03)
 number of electron      30.0000000 magnetization 
 augmentation part        0.6997964 magnetization 

 Broyden mixing:
  rms(total) = 0.55481E-02    rms(broyden)= 0.55481E-02
  rms(prec ) = 0.81241E-02
  weight for this iteration     100.00

 eigenvalues of (default mixing * dielectric matrix)
  average eigenvalue GAMMA=   2.0245
  4.9271  2.3656  2.2646  1.3752  1.1795  1.0299  1.0299

 Free energy of the ion-electron system (eV)
  ---------------------------------------------------
  alpha Z        PSCENC =         0.09644577
  Ewald energy   TEWEN  =      2286.97567437
  -Hartree energ DENC   =     -3048.87882656
  -exchange      EXHF   =         0.00000000
  -V(xc)+E(xc)   XCENC  =        98.46734261
  PAW double counting   =      2558.38592808    -2562.65023993
  entropy T*S    EENTRO =        -0.00000000
  eigenvalues    EBANDS =      -366.31089279
  atomic energy  EATOM  =       957.86486381
  Solvation  Ediel_sol  =         0.00000000
  ---------------------------------------------------
  free energy    TOTEN  =       -76.04970463 eV

  energy without entropy =      -76.04970463  energy(sigma->0) =      -76.04970463


--------------------------------------------------------------------------------------------------------




----------------------------------------- Iteration    1(  13)  ---------------------------------------


    POTLOK:  cpu time   33.1997: real time   33.2814
    SETDIJ:  cpu time    0.0579: real time    0.0581
     EDDAV:  cpu time   32.1451: real time   32.2247
       DOS:  cpu time    0.0000: real time    0.0000
    CHARGE:  cpu time    4.9550: real time    4.9673
    MIXING:  cpu time    1.2623: real time    1.2654
    --------------------------------------------
      LOOP:  cpu time   71.6219: real time   71.8600

 eigenvalue-minimisations  :    64
 total energy-change (2. order) :-0.1055928E-01  (-0.2592652E-03)
 number of electron      30.0000000 magnetization 
 augmentation part        0.6992324 magnetization 

 Broyden mixing:
  rms(total) = 0.35372E-02    rms(broyden)= 0.35372E-02
  rms(prec ) = 0.44942E-02
  weight for this iteration     100.00

 eigenvalues of (default mixing * dielectric matrix)
  average eigenvalue GAMMA=   2.0532
  5.2497  2.8678  2.3454  1.6465  1.0750  1.0750  1.2386  0.9280

 Free energy of the ion-electron system (eV)
  ---------------------------------------------------
  alpha Z        PSCENC =         0.09644577
  Ewald energy   TEWEN  =      2286.97567437
  -Hartree energ DENC   =     -3051.99406502
  -exchange      EXHF   =         0.00000000
  -V(xc)+E(xc)   XCENC  =        98.49884265
  PAW double counting   =      2554.46068478    -2558.72873520
  entropy T*S    EENTRO =        -0.00000000
  eigenvalues    EBANDS =      -363.23397507
  atomic energy  EATOM  =       957.86486381
  Solvation  Ediel_sol  =         0.00000000
  ---------------------------------------------------
  free energy    TOTEN  =       -76.06026391 eV

  energy without entropy =      -76.06026391  energy(sigma->0) =      -76.06026391


--------------------------------------------------------------------------------------------------------




----------------------------------------- Iteration    1(  14)  ---------------------------------------


    POTLOK:  cpu time   33.2056: real time   33.2875
    SETDIJ:  cpu time    0.0486: real time    0.0487
     EDDAV:  cpu time   32.1799: real time   32.2596
       DOS:  cpu time    0.0000: real time    0.0000
    CHARGE:  cpu time    4.9544: real time    4.9667
    MIXING:  cpu time    1.3003: real time    1.3035
    --------------------------------------------
      LOOP:  cpu time   71.6906: real time   71.8707

 eigenvalue-minimisations  :    64
 total energy-change (2. order) :-0.7853917E-02  (-0.1020262E-03)
 number of electron      30.0000000 magnetization 
 augmentation part        0.6993989 magnetization 

 Broyden mixing:
  rms(total) = 0.17332E-02    rms(broyden)= 0.17332E-02
  rms(prec ) = 0.24684E-02
  weight for this iteration     100.00

 eigenvalues of (default mixing * dielectric matrix)
  average eigenvalue GAMMA=   2.1890
  6.3379  3.2559  2.3403  1.8736  1.7075  1.0869  1.0869  0.9552  1.0565

 Free energy of the ion-electron system (eV)
  ---------------------------------------------------
  alpha Z        PSCENC =         0.09644577
  Ewald energy   TEWEN  =      2286.97567437
  -Hartree energ DENC   =     -3051.94595968
  -exchange      EXHF   =         0.00000000
  -V(xc)+E(xc)   XCENC  =        98.47596776
  PAW double counting   =      2556.97734584    -2561.24433251
  entropy T*S    EENTRO =        -0.00000000
  eigenvalues    EBANDS =      -363.26812319
  atomic energy  EATOM  =       957.86486381
  Solvation  Ediel_sol  =         0.00000000
  ---------------------------------------------------
  free energy    TOTEN  =       -76.06811783 eV

  energy without entropy =      -76.06811783  energy(sigma->0) =      -76.06811783


--------------------------------------------------------------------------------------------------------




----------------------------------------- Iteration    1(  15)  ---------------------------------------


    POTLOK:  cpu time   33.1987: real time   33.2803
    SETDIJ:  cpu time    0.0571: real time    0.0572
     EDDAV:  cpu time   27.6716: real time   27.7400
       DOS:  cpu time    0.0000: real time    0.0000
    CHARGE:  cpu time    4.9553: real time    4.9676
    MIXING:  cpu time    1.3578: real time    1.3611
    --------------------------------------------
      LOOP:  cpu time   67.2422: real time   67.4114

 eigenvalue-minimisations  :    52
 total energy-change (2. order) :-0.4702201E-02  (-0.4699952E-04)
 number of electron      30.0000000 magnetization 
 augmentation part        0.6993039 magnetization 

 Broyden mixing:
  rms(total) = 0.95089E-03    rms(broyden)= 0.95089E-03
  rms(prec ) = 0.13339E-02
  weight for this iteration     100.00

 eigenvalues of (default mixing * dielectric matrix)
  average eigenvalue GAMMA=   2.3235
  7.0603  4.3350  2.3623  2.3623  1.6358  1.3615  1.0705  1.0705  1.0361  0.9409

 Free energy of the ion-electron system (eV)
  ---------------------------------------------------
  alpha Z        PSCENC =         0.09644577
  Ewald energy   TEWEN  =      2286.97567437
  -Hartree energ DENC   =     -3052.51184818
  -exchange      EXHF   =         0.00000000
  -V(xc)+E(xc)   XCENC  =        98.47472888
  PAW double counting   =      2556.53140368    -2560.79774323
  entropy T*S    EENTRO =        -0.00000000
  eigenvalues    EBANDS =      -362.70634513
  atomic energy  EATOM  =       957.86486381
  Solvation  Ediel_sol  =         0.00000000
  ---------------------------------------------------
  free energy    TOTEN  =       -76.07282003 eV

  energy without entropy =      -76.07282003  energy(sigma->0) =      -76.07282003


--------------------------------------------------------------------------------------------------------




----------------------------------------- Iteration    1(  16)  ---------------------------------------


    POTLOK:  cpu time   33.1748: real time   33.2564
    SETDIJ:  cpu time    0.0576: real time    0.0577
     EDDAV:  cpu time   32.2071: real time   32.2866
       DOS:  cpu time    0.0000: real time    0.0000
    CHARGE:  cpu time    4.9533: real time    4.9656
    MIXING:  cpu time    1.4162: real time    1.4197
    --------------------------------------------
      LOOP:  cpu time   71.8108: real time   71.9907

 eigenvalue-minimisations  :    64
 total energy-change (2. order) :-0.2913938E-02  (-0.3169302E-04)
 number of electron      30.0000000 magnetization 
 augmentation part        0.6992941 magnetization 

 Broyden mixing:
  rms(total) = 0.54697E-03    rms(broyden)= 0.54697E-03
  rms(prec ) = 0.72016E-03
  weight for this iteration     100.00

 eigenvalues of (default mixing * dielectric matrix)
  average eigenvalue GAMMA=   2.4126
  7.6116  5.0286  2.8014  2.3164  1.9063  1.5930  1.2422  1.0728  1.0728  0.9667
  0.9267

 Free energy of the ion-electron system (eV)
  ---------------------------------------------------
  alpha Z        PSCENC =         0.09644577
  Ewald energy   TEWEN  =      2286.97567437
  -Hartree energ DENC   =     -3052.54711425
  -exchange      EXHF   =         0.00000000
  -V(xc)+E(xc)   XCENC  =        98.46814031
  PAW double counting   =      2556.50768601    -2560.77375161
  entropy T*S    EENTRO =        -0.00000000
  eigenvalues    EBANDS =      -362.66767838
  atomic energy  EATOM  =       957.86486381
  Solvation  Ediel_sol  =         0.00000000
  ---------------------------------------------------
  free energy    TOTEN  =       -76.07573397 eV

  energy without entropy =      -76.07573397  energy(sigma->0) =      -76.07573397


--------------------------------------------------------------------------------------------------------




----------------------------------------- Iteration    1(  17)  ---------------------------------------


    POTLOK:  cpu time   33.1853: real time   33.2670
    SETDIJ:  cpu time    0.0684: real time    0.0685
     EDDAV:  cpu time   27.6575: real time   27.7259
       DOS:  cpu time    0.0000: real time    0.0000
    CHARGE:  cpu time    4.9574: real time    4.9697
    MIXING:  cpu time    1.4660: real time    1.4696
    --------------------------------------------
      LOOP:  cpu time   67.3364: real time   67.5059

 eigenvalue-minimisations  :    52
 total energy-change (2. order) :-0.1100431E-02  (-0.5664193E-05)
 number of electron      30.0000000 magnetization 
 augmentation part        0.6992529 magnetization 

 Broyden mixing:
  rms(total) = 0.27453E-03    rms(broyden)= 0.27453E-03
  rms(prec ) = 0.36559E-03
  weight for this iteration     100.00

 eigenvalues of (default mixing * dielectric matrix)
  average eigenvalue GAMMA=   2.4184
  8.1200  5.1198  3.0013  2.5241  1.8519  1.8519  1.3601  1.0684  1.0684  0.9256
  1.0421  1.0872

 Free energy of the ion-electron system (eV)
  ---------------------------------------------------
  alpha Z        PSCENC =         0.09644577
  Ewald energy   TEWEN  =      2286.97567437
  -Hartree energ DENC   =     -3052.65050472
  -exchange      EXHF   =         0.00000000
  -V(xc)+E(xc)   XCENC  =        98.46882286
  PAW double counting   =      2556.09188052    -2560.35793128
  entropy T*S    EENTRO =        -0.00000000
  eigenvalues    EBANDS =      -362.56608573
  atomic energy  EATOM  =       957.86486381
  Solvation  Ediel_sol  =         0.00000000
  ---------------------------------------------------
  free energy    TOTEN  =       -76.07683440 eV

  energy without entropy =      -76.07683440  energy(sigma->0) =      -76.07683440


--------------------------------------------------------------------------------------------------------




----------------------------------------- Iteration    1(  18)  ---------------------------------------


    POTLOK:  cpu time   33.1403: real time   33.2218
    SETDIJ:  cpu time    0.0517: real time    0.0518
     EDDAV:  cpu time   35.2767: real time   35.3640
       DOS:  cpu time    0.0000: real time    0.0000
    CHARGE:  cpu time    4.9634: real time    4.9757
    MIXING:  cpu time    1.5383: real time    1.5421
    --------------------------------------------
      LOOP:  cpu time   74.9721: real time   75.1604

 eigenvalue-minimisations  :    72
 total energy-change (2. order) :-0.4491602E-03  (-0.6596337E-06)
 number of electron      30.0000000 magnetization 
 augmentation part        0.6992530 magnetization 

 Broyden mixing:
  rms(total) = 0.18110E-03    rms(broyden)= 0.18110E-03
  rms(prec ) = 0.22505E-03
  weight for this iteration     100.00

 eigenvalues of (default mixing * dielectric matrix)
  average eigenvalue GAMMA=   2.4727
  8.5146  5.5178  3.6039  2.4250  2.4250  1.7735  1.5513  1.0716  1.0716  1.2202
  0.9277  1.0217  1.0217

 Free energy of the ion-electron system (eV)
  ---------------------------------------------------
  alpha Z        PSCENC =         0.09644577
  Ewald energy   TEWEN  =      2286.97567437
  -Hartree energ DENC   =     -3052.68895675
  -exchange      EXHF   =         0.00000000
  -V(xc)+E(xc)   XCENC  =        98.46823526
  PAW double counting   =      2555.68634602    -2559.95235796
  entropy T*S    EENTRO =        -0.00000000
  eigenvalues    EBANDS =      -362.52753408
  atomic energy  EATOM  =       957.86486381
  Solvation  Ediel_sol  =         0.00000000
  ---------------------------------------------------
  free energy    TOTEN  =       -76.07728356 eV

  energy without entropy =      -76.07728356  energy(sigma->0) =      -76.07728356


--------------------------------------------------------------------------------------------------------




----------------------------------------- Iteration    1(  19)  ---------------------------------------


    POTLOK:  cpu time   33.0711: real time   33.1525
    SETDIJ:  cpu time    0.0578: real time    0.0579
     EDDAV:  cpu time   35.2870: real time   35.3743
       DOS:  cpu time    0.0000: real time    0.0000
    CHARGE:  cpu time    4.9502: real time    4.9624
    MIXING:  cpu time    1.5906: real time    1.5946
    --------------------------------------------
      LOOP:  cpu time   74.9585: real time   75.1463

 eigenvalue-minimisations  :    72
 total energy-change (2. order) :-0.2197025E-03  (-0.3080269E-06)
 number of electron      30.0000000 magnetization 
 augmentation part        0.6992460 magnetization 

 Broyden mixing:
  rms(total) = 0.85444E-04    rms(broyden)= 0.85444E-04
  rms(prec ) = 0.11207E-03
  weight for this iteration     100.00

 eigenvalues of (default mixing * dielectric matrix)
  average eigenvalue GAMMA=   2.5212
  8.8538  5.9627  4.1655  2.7327  2.3211  1.8320  1.7803  1.0738  1.0738  1.2835
  0.9210  0.9787  1.1772  1.1401

 Free energy of the ion-electron system (eV)
  ---------------------------------------------------
  alpha Z        PSCENC =         0.09644577
  Ewald energy   TEWEN  =      2286.97567437
  -Hartree energ DENC   =     -3052.71574474
  -exchange      EXHF   =         0.00000000
  -V(xc)+E(xc)   XCENC  =        98.46855990
  PAW double counting   =      2555.94350500    -2560.20959664
  entropy T*S    EENTRO =        -0.00000000
  eigenvalues    EBANDS =      -362.50121074
  atomic energy  EATOM  =       957.86486381
  Solvation  Ediel_sol  =         0.00000000
  ---------------------------------------------------
  free energy    TOTEN  =       -76.07750326 eV

  energy without entropy =      -76.07750326  energy(sigma->0) =      -76.07750326


--------------------------------------------------------------------------------------------------------




----------------------------------------- Iteration    1(  20)  ---------------------------------------


    POTLOK:  cpu time   32.9858: real time   33.0670
    SETDIJ:  cpu time    0.0605: real time    0.0607
     EDDAV:  cpu time   32.2356: real time   32.3153
       DOS:  cpu time    0.0000: real time    0.0000
    CHARGE:  cpu time    4.9522: real time    4.9645
    MIXING:  cpu time    1.6668: real time    1.6710
    --------------------------------------------
      LOOP:  cpu time   71.9027: real time   72.0832

 eigenvalue-minimisations  :    64
 total energy-change (2. order) :-0.1023147E-03  (-0.6359228E-07)
 number of electron      30.0000000 magnetization 
 augmentation part        0.6992449 magnetization 

 Broyden mixing:
  rms(total) = 0.48829E-04    rms(broyden)= 0.48829E-04
  rms(prec ) = 0.62803E-04
  weight for this iteration     100.00

 eigenvalues of (default mixing * dielectric matrix)
  average eigenvalue GAMMA=   2.5317
  8.9464  6.2653  4.3910  2.9161  2.5229  1.9677  1.9677  1.4158  1.2497  1.2497
  1.0766  1.0766  1.0499  0.9399  0.9399

 Free energy of the ion-electron system (eV)
  ---------------------------------------------------
  alpha Z        PSCENC =         0.09644577
  Ewald energy   TEWEN  =      2286.97567437
  -Hartree energ DENC   =     -3052.72183692
  -exchange      EXHF   =         0.00000000
  -V(xc)+E(xc)   XCENC  =        98.46831835
  PAW double counting   =      2555.88479894    -2560.15092223
  entropy T*S    EENTRO =        -0.00000000
  eigenvalues    EBANDS =      -362.49494767
  atomic energy  EATOM  =       957.86486381
  Solvation  Ediel_sol  =         0.00000000
  ---------------------------------------------------
  free energy    TOTEN  =       -76.07760557 eV

  energy without entropy =      -76.07760557  energy(sigma->0) =      -76.07760557


--------------------------------------------------------------------------------------------------------




----------------------------------------- Iteration    1(  21)  ---------------------------------------


    POTLOK:  cpu time   32.9547: real time   33.0358
    SETDIJ:  cpu time    0.0594: real time    0.0595
     EDDAV:  cpu time   24.6480: real time   24.7090
       DOS:  cpu time    0.0000: real time    0.0000
    CHARGE:  cpu time    4.9605: real time    4.9727
    MIXING:  cpu time    1.7433: real time    1.7476
    --------------------------------------------
      LOOP:  cpu time   64.3676: real time   64.5296

 eigenvalue-minimisations  :    44
 total energy-change (2. order) :-0.4793850E-04  (-0.1393082E-07)
 number of electron      30.0000000 magnetization 
 augmentation part        0.6992453 magnetization 

 Broyden mixing:
  rms(total) = 0.27102E-04    rms(broyden)= 0.27102E-04
  rms(prec ) = 0.34524E-04
  weight for this iteration     100.00

 eigenvalues of (default mixing * dielectric matrix)
  average eigenvalue GAMMA=   2.5806
  9.1263  6.6756  4.6451  3.5605  2.5547  2.4296  1.7819  1.7819  1.3366  1.0765
  1.0765  1.1789  1.1789  1.0005  0.9363  0.9494

 Free energy of the ion-electron system (eV)
  ---------------------------------------------------
  alpha Z        PSCENC =         0.09644577
  Ewald energy   TEWEN  =      2286.97567437
  -Hartree energ DENC   =     -3052.72381834
  -exchange      EXHF   =         0.00000000
  -V(xc)+E(xc)   XCENC  =        98.46826540
  PAW double counting   =      2555.94346486    -2560.20957189
  entropy T*S    EENTRO =        -0.00000000
  eigenvalues    EBANDS =      -362.49297750
  atomic energy  EATOM  =       957.86486381
  Solvation  Ediel_sol  =         0.00000000
  ---------------------------------------------------
  free energy    TOTEN  =       -76.07765351 eV

  energy without entropy =      -76.07765351  energy(sigma->0) =      -76.07765351


--------------------------------------------------------------------------------------------------------




----------------------------------------- Iteration    1(  22)  ---------------------------------------


    POTLOK:  cpu time   32.9506: real time   33.0317
    SETDIJ:  cpu time    0.0714: real time    0.0716
     EDDAV:  cpu time   29.1154: real time   29.1874
       DOS:  cpu time    0.0000: real time    0.0000
    CHARGE:  cpu time    4.9604: real time    4.9727
    MIXING:  cpu time    1.8170: real time    1.8215
    --------------------------------------------
      LOOP:  cpu time   68.9167: real time   69.0897

 eigenvalue-minimisations  :    56
 total energy-change (2. order) :-0.2290768E-04  (-0.7843751E-08)
 number of electron      30.0000000 magnetization 
 augmentation part        0.6992477 magnetization 

 Broyden mixing:
  rms(total) = 0.16677E-04    rms(broyden)= 0.16677E-04
  rms(prec ) = 0.20334E-04
  weight for this iteration     100.00

 eigenvalues of (default mixing * dielectric matrix)
  average eigenvalue GAMMA=   2.5550
  9.2306  6.7749  5.0096  3.6381  2.6660  2.3787  1.7961  1.7961  1.3844  1.3844
  1.0717  1.0717  1.1617  1.1617  0.9239  0.9669  1.0183

 Free energy of the ion-electron system (eV)
  ---------------------------------------------------
  alpha Z        PSCENC =         0.09644577
  Ewald energy   TEWEN  =      2286.97567437
  -Hartree energ DENC   =     -3052.72127570
  -exchange      EXHF   =         0.00000000
  -V(xc)+E(xc)   XCENC  =        98.46810125
  PAW double counting   =      2555.91069634    -2560.17677890
  entropy T*S    EENTRO =        -0.00000000
  eigenvalues    EBANDS =      -362.49540336
  atomic energy  EATOM  =       957.86486381
  Solvation  Ediel_sol  =         0.00000000
  ---------------------------------------------------
  free energy    TOTEN  =       -76.07767642 eV

  energy without entropy =      -76.07767642  energy(sigma->0) =      -76.07767642


--------------------------------------------------------------------------------------------------------




----------------------------------------- Iteration    1(  23)  ---------------------------------------


    POTLOK:  cpu time   32.9762: real time   33.0573
    SETDIJ:  cpu time    0.0486: real time    0.0487
     EDDAV:  cpu time   24.5747: real time   24.6355
       DOS:  cpu time    0.0000: real time    0.0000
    CHARGE:  cpu time    4.9524: real time    4.9647
    MIXING:  cpu time    1.8932: real time    1.8980
    --------------------------------------------
      LOOP:  cpu time   64.4469: real time   64.6088

 eigenvalue-minimisations  :    44
 total energy-change (2. order) :-0.6755971E-05  (-0.1484505E-08)
 number of electron      30.0000000 magnetization 
 augmentation part        0.6992466 magnetization 

 Broyden mixing:
  rms(total) = 0.83178E-05    rms(broyden)= 0.83178E-05
  rms(prec ) = 0.10844E-04
  weight for this iteration     100.00

 eigenvalues of (default mixing * dielectric matrix)
  average eigenvalue GAMMA=   2.5934
  9.3537  7.0866  5.3662  3.9942  2.8791  2.5603  2.2857  1.8744  1.5690  1.1793
  1.1793  1.0703  1.0703  1.2428  0.9279  0.9515  1.0451  1.0451

 Free energy of the ion-electron system (eV)
  ---------------------------------------------------
  alpha Z        PSCENC =         0.09644577
  Ewald energy   TEWEN  =      2286.97567437
  -Hartree energ DENC   =     -3052.72455368
  -exchange      EXHF   =         0.00000000
  -V(xc)+E(xc)   XCENC  =        98.46817533
  PAW double counting   =      2555.91555606    -2560.18164400
  entropy T*S    EENTRO =        -0.00000000
  eigenvalues    EBANDS =      -362.49220084
  atomic energy  EATOM  =       957.86486381
  Solvation  Ediel_sol  =         0.00000000
  ---------------------------------------------------
  free energy    TOTEN  =       -76.07768318 eV

  energy without entropy =      -76.07768318  energy(sigma->0) =      -76.07768318


--------------------------------------------------------------------------------------------------------




----------------------------------------- Iteration    1(  24)  ---------------------------------------


    POTLOK:  cpu time   33.0162: real time   33.0975
    SETDIJ:  cpu time    0.0485: real time    0.0487
     EDDAV:  cpu time   24.5410: real time   24.6017
       DOS:  cpu time    0.0000: real time    0.0000
    CHARGE:  cpu time    4.9509: real time    4.9632
    MIXING:  cpu time    1.9750: real time    1.9799
    --------------------------------------------
      LOOP:  cpu time   64.5334: real time   64.6957

 eigenvalue-minimisations  :    44
 total energy-change (2. order) :-0.5366888E-05  (-0.1676574E-08)
 number of electron      30.0000000 magnetization 
 augmentation part        0.6992463 magnetization 

 Broyden mixing:
  rms(total) = 0.48905E-05    rms(broyden)= 0.48905E-05
  rms(prec ) = 0.60042E-05
  weight for this iteration     100.00

 eigenvalues of (default mixing * dielectric matrix)
  average eigenvalue GAMMA=   2.5875
  9.4241  7.1948  5.6082  4.0762  3.1803  2.4641  2.4641  1.8166  1.8166  1.2131
  1.2131  1.0701  1.0701  1.2962  1.2962  0.9294  0.9564  1.0365  1.0365

 Free energy of the ion-electron system (eV)
  ---------------------------------------------------
  alpha Z        PSCENC =         0.09644577
  Ewald energy   TEWEN  =      2286.97567437
  -Hartree energ DENC   =     -3052.72536150
  -exchange      EXHF   =         0.00000000
  -V(xc)+E(xc)   XCENC  =        98.46818519
  PAW double counting   =      2555.91700339    -2560.18309591
  entropy T*S    EENTRO =        -0.00000000
  eigenvalues    EBANDS =      -362.49140366
  atomic energy  EATOM  =       957.86486381
  Solvation  Ediel_sol  =         0.00000000
  ---------------------------------------------------
  free energy    TOTEN  =       -76.07768854 eV

  energy without entropy =      -76.07768854  energy(sigma->0) =      -76.07768854


--------------------------------------------------------------------------------------------------------




----------------------------------------- Iteration    1(  25)  ---------------------------------------


    POTLOK:  cpu time   33.0498: real time   33.1313
    SETDIJ:  cpu time    0.0486: real time    0.0487
     EDDAV:  cpu time   32.1236: real time   32.2032
       DOS:  cpu time    0.0000: real time    0.0000
    CHARGE:  cpu time    4.9460: real time    4.9583
    MIXING:  cpu time    2.0565: real time    2.0616
    --------------------------------------------
      LOOP:  cpu time   72.2263: real time   72.4076

 eigenvalue-minimisations  :    64
 total energy-change (2. order) :-0.1982788E-05  (-0.7373515E-09)
 number of electron      30.0000000 magnetization 
 augmentation part        0.6992460 magnetization 

 Broyden mixing:
  rms(total) = 0.32979E-05    rms(broyden)= 0.32979E-05
  rms(prec ) = 0.39645E-05
  weight for this iteration     100.00

 eigenvalues of (default mixing * dielectric matrix)
  average eigenvalue GAMMA=   2.6248
  9.4628  7.5655  5.7969  4.6375  3.3630  2.7021  2.5004  2.2833  1.8771  1.5626
  1.1822  1.1822  1.0720  1.0720  1.1540  1.1540  1.0848  0.9250  0.9591  0.9591

 Free energy of the ion-electron system (eV)
  ---------------------------------------------------
  alpha Z        PSCENC =         0.09644577
  Ewald energy   TEWEN  =      2286.97567437
  -Hartree energ DENC   =     -3052.72588245
  -exchange      EXHF   =         0.00000000
  -V(xc)+E(xc)   XCENC  =        98.46819793
  PAW double counting   =      2555.91577675    -2560.18187185
  entropy T*S    EENTRO =        -0.00000000
  eigenvalues    EBANDS =      -362.49089486
  atomic energy  EATOM  =       957.86486381
  Solvation  Ediel_sol  =         0.00000000
  ---------------------------------------------------
  free energy    TOTEN  =       -76.07769053 eV

  energy without entropy =      -76.07769053  energy(sigma->0) =      -76.07769053


--------------------------------------------------------------------------------------------------------




----------------------------------------- Iteration    1(  26)  ---------------------------------------


    POTLOK:  cpu time   32.9771: real time   33.0582
    SETDIJ:  cpu time    0.0486: real time    0.0487
     EDDAV:  cpu time   27.6251: real time   27.6934
       DOS:  cpu time    0.0000: real time    0.0000
    CHARGE:  cpu time    4.9591: real time    4.9714
    MIXING:  cpu time    2.1457: real time    2.1510
    --------------------------------------------
      LOOP:  cpu time   67.7574: real time   67.9272

 eigenvalue-minimisations  :    52
 total energy-change (2. order) :-0.9568853E-06  (-0.6708838E-09)
 number of electron      30.0000000 magnetization 
 augmentation part        0.6992463 magnetization 

 Broyden mixing:
  rms(total) = 0.15308E-05    rms(broyden)= 0.15308E-05
  rms(prec ) = 0.18268E-05
  weight for this iteration     100.00

 eigenvalues of (default mixing * dielectric matrix)
  average eigenvalue GAMMA=   2.5930
  9.4678  7.7120  5.9261  4.7483  3.4971  2.7587  2.4351  2.2239  1.8490  1.6156
  1.4730  1.2091  1.2091  1.0723  1.0723  1.1474  1.1474  0.9266  0.9604  1.0013
  1.0013

 Free energy of the ion-electron system (eV)
  ---------------------------------------------------
  alpha Z        PSCENC =         0.09644577
  Ewald energy   TEWEN  =      2286.97567437
  -Hartree energ DENC   =     -3052.72533833
  -exchange      EXHF   =         0.00000000
  -V(xc)+E(xc)   XCENC  =        98.46817732
  PAW double counting   =      2555.91272793    -2560.17882120
  entropy T*S    EENTRO =        -0.00000000
  eigenvalues    EBANDS =      -362.49142116
  atomic energy  EATOM  =       957.86486381
  Solvation  Ediel_sol  =         0.00000000
  ---------------------------------------------------
  free energy    TOTEN  =       -76.07769148 eV

  energy without entropy =      -76.07769148  energy(sigma->0) =      -76.07769148


--------------------------------------------------------------------------------------------------------




----------------------------------------- Iteration    1(  27)  ---------------------------------------


    POTLOK:  cpu time   32.9123: real time   32.9933
    SETDIJ:  cpu time    0.0594: real time    0.0595
     EDDAV:  cpu time   23.0771: real time   23.1342
       DOS:  cpu time    0.0000: real time    0.0000
    CHARGE:  cpu time    4.9624: real time    4.9747
    MIXING:  cpu time    2.2473: real time    2.2529
    --------------------------------------------
      LOOP:  cpu time   63.2603: real time   63.4195

 eigenvalue-minimisations  :    40
 total energy-change (2. order) :-0.2787783E-06  (-0.4386980E-09)
 number of electron      30.0000000 magnetization 
 augmentation part        0.6992463 magnetization 

 Broyden mixing:
  rms(total) = 0.81652E-06    rms(broyden)= 0.81652E-06
  rms(prec ) = 0.10567E-05
  weight for this iteration     100.00

 eigenvalues of (default mixing * dielectric matrix)
  average eigenvalue GAMMA=   2.6301
  9.5370  7.8872  6.2104  4.9759  3.8497  2.8996  2.4980  2.4980  2.2439  1.8710
  1.5645  1.1700  1.1700  1.2480  1.0735  1.0735  1.1111  1.1111  0.9260  0.9686
  0.9872  0.9872

 Free energy of the ion-electron system (eV)
  ---------------------------------------------------
  alpha Z        PSCENC =         0.09644577
  Ewald energy   TEWEN  =      2286.97567437
  -Hartree energ DENC   =     -3052.72537929
  -exchange      EXHF   =         0.00000000
  -V(xc)+E(xc)   XCENC  =        98.46817670
  PAW double counting   =      2555.91392466    -2560.18001731
  entropy T*S    EENTRO =        -0.00000000
  eigenvalues    EBANDS =      -362.49138047
  atomic energy  EATOM  =       957.86486381
  Solvation  Ediel_sol  =         0.00000000
  ---------------------------------------------------
  free energy    TOTEN  =       -76.07769176 eV

  energy without entropy =      -76.07769176  energy(sigma->0) =      -76.07769176


--------------------------------------------------------------------------------------------------------




----------------------------------------- Iteration    1(  28)  ---------------------------------------


    POTLOK:  cpu time   32.8673: real time   32.9482
    SETDIJ:  cpu time    0.0825: real time    0.0827
     EDDAV:  cpu time   24.5932: real time   24.6541
       DOS:  cpu time    0.0000: real time    0.0000
    CHARGE:  cpu time    4.9547: real time    4.9670
    MIXING:  cpu time    2.3422: real time    2.3480
    --------------------------------------------
      LOOP:  cpu time   64.8417: real time   65.0056

 eigenvalue-minimisations  :    44
 total energy-change (2. order) :-0.2694724E-06  (-0.2895337E-09)
 number of electron      30.0000000 magnetization 
 augmentation part        0.6992463 magnetization 

 Broyden mixing:
  rms(total) = 0.49583E-06    rms(broyden)= 0.49583E-06
  rms(prec ) = 0.59750E-06
  weight for this iteration     100.00

 eigenvalues of (default mixing * dielectric matrix)
  average eigenvalue GAMMA=   2.6050
  9.5272  8.0524  6.2892  5.1724  3.9855  3.1359  2.5201  2.4839  2.0477  1.9074
  1.4211  1.4211  1.2322  1.2322  1.0712  1.0712  1.1970  1.1970  1.0610  1.0610
  0.9228  0.9529  0.9529

 Free energy of the ion-electron system (eV)
  ---------------------------------------------------
  alpha Z        PSCENC =         0.09644577
  Ewald energy   TEWEN  =      2286.97567437
  -Hartree energ DENC   =     -3052.72544634
  -exchange      EXHF   =         0.00000000
  -V(xc)+E(xc)   XCENC  =        98.46817660
  PAW double counting   =      2555.91369883    -2560.17979137
  entropy T*S    EENTRO =        -0.00000000
  eigenvalues    EBANDS =      -362.49131371
  atomic energy  EATOM  =       957.86486381
  Solvation  Ediel_sol  =         0.00000000
  ---------------------------------------------------
  free energy    TOTEN  =       -76.07769203 eV

  energy without entropy =      -76.07769203  energy(sigma->0) =      -76.07769203


--------------------------------------------------------------------------------------------------------




----------------------------------------- Iteration    1(  29)  ---------------------------------------


    POTLOK:  cpu time   32.9645: real time   33.0456
    SETDIJ:  cpu time    0.0776: real time    0.0778
     EDDAV:  cpu time   23.0903: real time   23.1474
       DOS:  cpu time    0.0000: real time    0.0000
    --------------------------------------------
      LOOP:  cpu time   56.1341: real time   56.2750

 eigenvalue-minimisations  :    40
 total energy-change (2. order) :-0.6944902E-07  (-0.1331415E-09)
 number of electron      30.0000000 magnetization 
 augmentation part        0.6992463 magnetization 

 Free energy of the ion-electron system (eV)
  ---------------------------------------------------
  alpha Z        PSCENC =         0.09644577
  Ewald energy   TEWEN  =      2286.97567437
  -Hartree energ DENC   =     -3052.72543637
  -exchange      EXHF   =         0.00000000
  -V(xc)+E(xc)   XCENC  =        98.46817639
  PAW double counting   =      2555.91355964    -2560.17965222
  entropy T*S    EENTRO =        -0.00000000
  eigenvalues    EBANDS =      -362.49132350
  atomic energy  EATOM  =       957.86486381
  Solvation  Ediel_sol  =         0.00000000
  ---------------------------------------------------
  free energy    TOTEN  =       -76.07769210 eV

  energy without entropy =      -76.07769210  energy(sigma->0) =      -76.07769210


--------------------------------------------------------------------------------------------------------




 average (electrostatic) potential at core
  the test charge radii are     0.6991  0.5201
  (the norm of the test charge is              1.0000)
       1 -58.7426       2 -58.7423       3 -58.7428       4 -58.7441       5 -58.7445
       6 -58.7440       7 -42.1552       8 -42.1604       9 -42.1538      10 -42.1553
      11 -42.1562      12 -42.1549
 
 
 
 E-fermi :  -6.2334     XC(G=0):  -0.0478     alpha+bet : -0.0179


 k-point     1 :       0.0000    0.0000    0.0000
  band No.  band energies     occupation 
      1     -21.2216      2.00000
      2     -18.4326      2.00000
      3     -18.4284      2.00000
      4     -14.8191      2.00000
      5     -14.8179      2.00000
      6     -12.9045      2.00000
      7     -11.1904      2.00000
      8     -10.8748      2.00000
      9     -10.2152      2.00000
     10     -10.2093      2.00000
     11      -9.0683      2.00000
     12      -8.2088      2.00000
     13      -8.2028      2.00000
     14      -6.3273      2.00000
     15      -6.3246      2.00000
     16      -1.1997      0.00000
     17      -1.1995      0.00000
     18      -0.5001      0.00000
     19      -0.0306      0.00000
     20      -0.0303      0.00000
     21       0.0134      0.00000
     22       0.1114      0.00000


--------------------------------------------------------------------------------------------------------


 soft charge-density along one line, spin component           1
         0         1         2         3         4         5         6         7         8         9
 total charge-density along one line
 
 pseudopotential strength for first ion, spin component:           1
 10.253  13.635   0.000  -0.000   0.000   0.000   0.000   0.000
 13.635  18.133   0.001  -0.000   0.000   0.001   0.000   0.001
  0.000   0.001  -4.382   0.000   0.001   8.570  -0.000  -0.002
 -0.000  -0.000   0.000  -4.361  -0.002  -0.000   8.536   0.004
  0.000   0.000   0.001  -0.002  -4.382  -0.002   0.004   8.571
  0.000   0.001   8.570  -0.000  -0.002 -18.899   0.000   0.003
  0.000   0.000  -0.000   8.536   0.004   0.000 -18.847  -0.006
  0.000   0.001  -0.002   0.004   8.571   0.003  -0.006 -18.900
 total augmentation occupancy for first ion, spin component:           1
  7.834  -3.399  -0.192  -0.011  -0.141  -0.039  -0.002  -0.028
 -3.399   1.518   0.121   0.007   0.089   0.023   0.001   0.017
 -0.192   0.121   1.815  -0.008  -0.049   0.165  -0.001  -0.009
 -0.011   0.007  -0.008   1.163   0.072  -0.001   0.070   0.011
 -0.141   0.089  -0.049   0.072   1.835  -0.009   0.011   0.169
 -0.039   0.023   0.165  -0.001  -0.009   0.016  -0.000  -0.001
 -0.002   0.001  -0.001   0.070   0.011  -0.000   0.004   0.001
 -0.028   0.017  -0.009   0.011   0.169  -0.001   0.001   0.017


------------------------ aborting loop because EDIFF is reached ----------------------------------------


    CHARGE:  cpu time    4.9546: real time    4.9670
    FORLOC:  cpu time    4.3203: real time    4.3309
    FORNL :  cpu time    2.8707: real time    2.8778
    STRESS:  cpu time   11.4924: real time   11.5208
    FORCOR:  cpu time   33.6726: real time   33.7557
    FORHAR:  cpu time   11.6121: real time   11.6408
    MIXING:  cpu time    2.4299: real time    2.4359
    OFIELD:  cpu time    0.0000: real time    0.0000

  FORCE on cell =-STRESS in cart. coord.  units (eV):
  Direction    XX          YY          ZZ          XY          YZ          ZX
  --------------------------------------------------------------------------------------
  Alpha Z     0.09645     0.09645     0.09645
  Ewald    1216.62579  1231.09869  -160.74958     0.71696    -7.05336   144.93658
  Hartree  1279.74530  1288.07140   484.90882     0.40844    -4.05704    83.25799
  E(xc)    -107.09606  -107.06261  -110.27383     0.00167    -0.01638     0.33775
  Local   -2762.09388 -2784.28920  -647.95466    -1.09342    10.81065  -221.99269
  n-local   -39.50934   -39.57171   -35.31967    -0.00289     0.02175    -0.45160
  augment    -1.54233    -1.54496    -1.27426    -0.00016     0.00139    -0.02877
  Kinetic   415.48559   415.02047   470.58488    -0.02569     0.28417    -5.87670
  Fock        0.00000     0.00000     0.00000     0.00000     0.00000     0.00000
  -------------------------------------------------------------------------------------
  Total       1.71152     1.81852     0.01815     0.00492    -0.00883     0.18256
  in kB       0.06396     0.06796     0.00068     0.00018    -0.00033     0.00682
  external pressure =        0.04 kB  Pullay stress =        0.00 kB


 VOLUME and BASIS-vectors are now :
 -----------------------------------------------------------------------------
  energy-cutoff  :     1600.00
  volume of cell :    42875.00
      direct lattice vectors                 reciprocal lattice vectors
    35.000000000  0.000000000  0.000000000     0.028571429  0.000000000  0.000000000
     0.000000000 35.000000000  0.000000000     0.000000000  0.028571429  0.000000000
     0.000000000  0.000000000 35.000000000     0.000000000  0.000000000  0.028571429

  length of vectors
    35.000000000 35.000000000 35.000000000     0.028571429  0.028571429  0.028571429


 FORCES acting on ions
    electron-ion (+dipol)            ewald-force                    non-local-force                 convergence-correction
 -----------------------------------------------------------------------------------------------
   -.107E+03 -.144E+03 -.100E+02   0.108E+03 0.145E+03 0.101E+02   -.534E+00 -.708E+00 -.506E-01   0.210E-05 0.293E-05 0.185E-06
   -.178E+03 0.214E+02 -.182E+02   0.179E+03 -.215E+02 0.182E+02   -.901E+00 0.106E+00 -.663E-01   0.388E-05 -.166E-05 0.604E-06
   -.704E+02 0.165E+03 -.772E+01   0.707E+02 -.166E+03 0.776E+01   -.348E+00 0.813E+00 -.372E-01   0.898E-06 -.383E-05 0.303E-06
   0.107E+03 0.144E+03 0.105E+02   -.108E+03 -.145E+03 -.105E+02   0.535E+00 0.724E+00 0.495E-01   -.189E-05 -.251E-05 -.155E-06
   0.178E+03 -.213E+02 0.180E+02   -.179E+03 0.214E+02 -.181E+02   0.895E+00 -.109E+00 0.611E-01   -.425E-05 0.256E-07 -.610E-06
   0.703E+02 -.165E+03 0.843E+01   -.706E+02 0.166E+03 -.846E+01   0.352E+00 -.826E+00 0.471E-01   -.300E-05 0.385E-05 -.551E-06
   -.483E+02 -.649E+02 -.495E+01   0.520E+02 0.699E+02 0.532E+01   -.352E+01 -.471E+01 -.368E+00   0.801E-06 0.108E-05 0.838E-07
   -.800E+02 0.960E+01 -.902E+01   0.861E+02 -.103E+02 0.970E+01   -.582E+01 0.697E+00 -.673E+00   0.104E-05 -.101E-06 0.145E-06
   -.317E+02 0.745E+02 -.383E+01   0.342E+02 -.802E+02 0.412E+01   -.231E+01 0.541E+01 -.285E+00   0.212E-06 -.689E-06 0.567E-07
   0.483E+02 0.649E+02 0.475E+01   -.520E+02 -.699E+02 -.511E+01   0.351E+01 0.472E+01 0.346E+00   -.549E-06 -.619E-06 -.497E-07
   0.800E+02 -.960E+01 0.836E+01   -.861E+02 0.103E+02 -.900E+01   0.582E+01 -.698E+00 0.612E+00   -.865E-06 0.545E-07 -.120E-06
   0.317E+02 -.745E+02 0.373E+01   -.341E+02 0.802E+02 -.401E+01   0.230E+01 -.541E+01 0.270E+00   -.449E-06 0.919E-06 -.771E-07
 -----------------------------------------------------------------------------------------------
   0.883E-02 0.124E-02 0.948E-01   -.639E-13 0.568E-13 -.799E-14   -.876E-02 -.121E-02 -.948E-01   -.207E-05 -.558E-06 -.186E-06
 
 
 POSITION                                       TOTAL-FORCE (eV/Angst)
 -----------------------------------------------------------------------------------
      0.71265      1.12100      0.06054        -0.083223     -0.079283      0.000627
      1.25824     34.84075      0.12423        -0.143912      0.009994      0.013031
      0.42688     33.72547      0.04265        -0.048327      0.095896      0.003304
     34.05042     33.88993     34.89969         0.070068      0.111803      0.003209
     33.50447      0.17105     34.83845         0.136872     -0.022261     -0.010260
     34.33617      1.28664     34.91660         0.050767     -0.117208      0.009241
      1.35784      1.98640      0.12774         0.182857      0.256004      0.010664
      2.32495     34.71290      0.24674         0.318028     -0.039743      0.013862
      0.85044     32.73157      0.09475         0.117717     -0.287602      0.008952
     33.40554     33.02373     34.83629        -0.180849     -0.245585     -0.014172
     32.43622      0.29922     34.72630        -0.301996      0.036294     -0.026733
     33.91310      2.28100     34.86711        -0.118001      0.281691     -0.011724
 -----------------------------------------------------------------------------------
    total drift:                                0.000072      0.000027      0.000015


--------------------------------------------------------------------------------------------------------



  FREE ENERGIE OF THE ION-ELECTRON SYSTEM (eV)
  ---------------------------------------------------
  free  energy   TOTEN  =       -76.07769210 eV

  energy  without entropy=      -76.07769210  energy(sigma->0) =      -76.07769210
 


--------------------------------------------------------------------------------------------------------


    POTLOK:  cpu time   33.2765: real time   33.3585


--------------------------------------------------------------------------------------------------------


 writing wavefunctions
     LOOP+:  cpu time 2519.2523: real time 2525.7346
    4ORBIT:  cpu time    0.0000: real time    0.0000

 total amount of memory used by VASP on root node  7374933. kBytes
========================================================================

   base      :      30000. kBytes
   nonl-proj :      83085. kBytes
   fftplans  :    2666593. kBytes
   grid      :    4503859. kBytes
   one-center:          1. kBytes
   wavefun   :      91395. kBytes
 
  
  
 General timing and accounting informations for this job:
 ========================================================
  
                  Total CPU time used (sec):     3347.295
                            User time (sec):     3055.093
                          System time (sec):      292.202
                         Elapsed time (sec):     3356.007
  
                   Maximum memory used (kb):    11557536.
                   Average memory used (kb):           0.
  
                          Minor page faults:       240477
                          Major page faults:            4
                 Voluntary context switches:          723
 
 PROFILE, used timers:      14
 =============================
 
 index                 routine                    time                            calls level
----------------------------------------------------------------------------------------------
    1    total_time                         3356.007867                                1   1
    2      w1_copy                               6.746569                           6904   2
    3      fftwav_mpi                          379.678917                           2691   2
    4      fftext_mpi                            2.034764                             22   2
    5      overl                                 0.001835                           3951   2
    6      orth1                                 8.997310                            956   2
    7      lincom                                0.576919                             30   2
    8      eccp                                 13.855305                            638   2
    9      hamiltmu                            411.813049                            318   2
   10        vhamil                               82.945158                         2294   3
   11        overl1                                0.001779                         2294   3
   12        kinhamil                            209.649530                         2294   3
   13          fftext_mpi                          207.441813                       2294   4
   14      pdssyex_zheevx                        0.041134                             29   2
 
 Flat profile
 ============
 
             routine name                   CPU           calls
 ---------------------------------------------------------------
 total_time                           2532.262066           1
 fftwav_mpi                            379.678917        2691
 fftext_mpi                            209.476577        2316
 hamiltmu                              119.216581         318
 vhamil                                 82.945158        2294
 eccp                                   13.855305         638
 orth1                                   8.997310         956
 w1_copy                                 6.746569        6904
 kinhamil                                2.207718        2294
 lincom                                  0.576919          30
 pdssyex_zheevx                          0.041134          29
 overl                                   0.001835        3951
 overl1                                  0.001779        2294
 ---------------------------------------------------------------
  summed up times    3356.00786709785     
 
Profiling took   0.012908  0.007289  0.003396  0.003390 seconds
Profiling took   0.011485 seconds
