
 Primary working directories    : /scratch/sirous/125664/molpro.5HbZXscDI7
 Secondary working directories  : /scratch/sirous/125664/molpro.5HbZXscDI7
 Wavefunction directory         : /scratch/sirous/125664/
 Main file repository           : /scratch/sirous/125664/molpro.5HbZXscDI7/

 id        : karlovklimes

 Nodes                      nprocs
 nc-02.cc.karlov.mff.cuni.cz    4

 Using customized tuning parameters: mindgm=1; mindgv=20; mindgc=4; mindgr=1; noblas=0; minvec=7
 default implementation of scratch files=sf  


 Variables initialized (934), CPU time= 0.01 sec
 ***,CH3C6H4CN+CF3CN+BF3
 memory,500,m
 gdirect
 gthresh,energy=1.d-8,twoint=1.d-15,oneint=1.d-15,zero=1.d-15,orbital=1.d-8,grid=1.d-8
 symmetry,nosym
 geomtyp=xyz
                                                                                 ! Geometry
 geometry={
 C1        -0.610562566    0.227503096     -0.170602070
 H1        0.107385058    0.861436027     -0.634209239
 C2        -1.386275728    -0.525325504     0.379973527
 H2        -2.080703238    -1.174067393     0.854379369
 C3        2.861524045    -0.653464749     0.474780402
 O1        2.607344987    0.302637498     -0.224057346
 O2        1.913619426    -1.427804976     1.042467007
 H3        1.052620038    -1.060505989     0.774695865
 C4        4.237159198    -1.134914579     0.824931310
 H4        4.975545011    -0.497364491     0.354080986
 H5        4.363369714    -1.123059853     1.904966634
 H6        4.359436341    -2.162759125     0.491696980
 }
 
 
 
 basis=avqz
 
 
 
                                                                                 ! Dimer Calculation
 {rhf,accu=1.d-8;orbital,2101.2}
 eab_HF=energy
 
 
                                                                                 !monomer A
 dummy,5,6,7,8,9,10,11,12;                                                       ! NOW MONOMER B IS DUMMY
 {rhf,accu=1.d-8;orbital,2201.2}
 ea_HF=energy
                                                                                 !monomer B
 dummy,1,2,3,4;                                                                  !NOW MONOMER A IS DUMMY
 {rhf,accu=1.d-8;orbital,2301.2}
 eb_HF=energy
 
 E_AB_int=eab_HF-ea_HF-eb_HF
 
 
 text,results in hartree
 show,E_AB_int
 
 Commands  initialized (763), CPU time= 0.01 sec, 617 directives.
 Default parameters read. Elapsed time= 0.20 sec

 Checking input...
 Passed
1


                                         ***  PROGRAM SYSTEM MOLPRO  ***
                                       Copyright, TTI GmbH Stuttgart, 2015
                                    Version 2019.2 linked Jun  8 2019 11:26:33


 **********************************************************************************************************************************
 LABEL *   CH3C6H4CN+CF3CN+BF3                                                           
  64 bit mpp version                                                                     DATE: 22-Nov-19          TIME: 09:21:17  
 **********************************************************************************************************************************

 SHA1:             8135a10abc80eafa5b3ae28ffc55be4890dc4c84
 **********************************************************************************************************************************

 THRESHOLDS:

 ZERO    =  1.00D-15  ONEINT  =  1.00D-15  TWOINT  =  1.00D-15  PREFAC  =  1.00D-14  XXXXXX  =  1.00D-09  EORDER  =  1.00D-04
 ENERGY  =  1.00D-08  ETEST   =  0.00D+00  EDENS   =  0.00D+00  THRDEDEF=  1.00D-06  GRADIENT=  1.00D-02  STEP    =  1.00D-03
 ORBITAL =  1.00D-08  CIVEC   =  1.00D-05  COEFF   =  1.00D-04  PRINTCI =  5.00D-02  PUNCHCI =  9.90D+01  OPTGRAD =  3.00D-04
 OPTENERG=  1.00D-06  OPTSTEP =  3.00D-04  THRGRAD =  1.00D-10  COMPRESS=  1.00D-11  VARMIN  =  1.00D-07  VARMAX  =  1.00D-03
 THRDOUB =  0.00D+00  THRDIV  =  1.00D-05  THRRED  =  1.00D-07  THRPSP  =  1.00D+00  THRDC   =  1.00D-10  THRCS   =  1.00D-10
 THRNRM  =  1.00D-08  THREQ   =  0.00D+00  THRDE   =  1.00D+00  THRREF  =  1.00D-05  SPARFAC =  1.00D+00  THRDLP  =  1.00D-07
 THRDIA  =  1.00D-10  THRDLS  =  1.00D-07  THRGPS  =  0.00D+00  THRKEX  =  0.00D+00  THRDIS  =  2.00D-01  THRVAR  =  1.00D-10
 THRLOC  =  1.00D-06  THRGAP  =  1.00D-06  THRLOCT = -1.00D+00  THRGAPT = -1.00D+00  THRORB  =  1.00D-06  THRMLTP =  0.00D+00
 THRCPQCI=  1.00D-10  KEXTA   =  0.00D+00  THRCOARS=  0.00D+00  SYMTOL  =  1.00D-06  GRADTOL =  1.00D-06  THROVL  =  1.00D-08
 THRORTH =  1.00D-08  GRID    =  1.00D-08  GRIDMAX =  1.00D-03  DTMAX   =  0.00D+00  THROCCDE=  1.00D-01  THROCCDE=  1.00D-01
 THRPRINT=  2.50D-01


 Variable memory set to  500000000 words,  buffer space 

 SETTING GEOMTYP        =    XYZ
 ZSYMEL=NOSYM

 SETTING BASIS          =    AVQZ


 Recomputing integrals since basis changed


 Using spherical harmonics

 Library entry C      S aug-cc-pVQZ          selected for orbital group  1
 Library entry C      P aug-cc-pVQZ          selected for orbital group  1
 Library entry C      D aug-cc-pVQZ          selected for orbital group  1
 Library entry C      F aug-cc-pVQZ          selected for orbital group  1
 Library entry C      G aug-cc-pVQZ          selected for orbital group  1
 Library entry H      S aug-cc-pVQZ          selected for orbital group  2
 Library entry H      P aug-cc-pVQZ          selected for orbital group  2
 Library entry H      D aug-cc-pVQZ          selected for orbital group  2
 Library entry H      F aug-cc-pVQZ          selected for orbital group  2
 Library entry O      S aug-cc-pVQZ          selected for orbital group  6
 Library entry O      P aug-cc-pVQZ          selected for orbital group  6
 Library entry O      D aug-cc-pVQZ          selected for orbital group  6
 Library entry O      F aug-cc-pVQZ          selected for orbital group  6
 Library entry O      G aug-cc-pVQZ          selected for orbital group  6


 PROGRAM * SEWARD (Integral evaluation for generally contracted gaussian basis sets)     Author: Roland Lindh, 1990

 Geometry written to block  1 of record 700


 Point group  C1  



 ATOMIC COORDINATES

 NR  ATOM    CHARGE       X              Y              Z

   1  C1      6.00   -1.153796032    0.429918544   -0.322391189
   2  H1      1.00    0.202928349    1.627878165   -1.198481767
   3  C2      6.00   -2.619681459   -0.992721329    0.718045901
   4  H2      1.00   -3.931959266   -2.218665825    1.614543014
   5  C3      6.00    5.407496744   -1.234869408    0.897204929
   6  O1      8.00    4.927167938    0.571901986   -0.423407020
   7  O2      8.00    3.616216622   -2.698160364    1.969977137
   8  H3      1.00    1.989163585   -2.004065873    1.463963015
   9  C4      6.00    8.007070430   -2.144677729    1.558894247
  10  H4      1.00    9.402417391   -0.939882672    0.669116089
  11  H5      1.00    8.245573740   -2.122275544    3.599865215
  12  H6      1.00    8.238140742   -4.087022420    0.929172628

 Bond lengths in Bohr (Angstrom)

 1-2  2.010806555  1-3  2.292429635  3-4  2.007167164  5-6  2.288919953  5-7  2.549655880
     ( 1.064073005)     ( 1.213101520)     ( 1.062147122)     ( 1.211244277)     ( 1.349219788)

  5- 9  2.832554905   7- 8  1.839869300   9-10  2.047004993   9-11  2.054981308   9-12  2.054907712
       ( 1.498923504)       ( 0.973616904)       ( 1.083228393)       ( 1.087449277)       ( 1.087410332)

 Bond angles

  1- 3- 4  178.92211763   2- 1- 3  177.31839717   5- 7- 8  106.80191146   5- 9-10  109.57256805

  5- 9-11  109.57389653   5- 9-12  109.58561377   6- 5- 7  123.25385323   6- 5- 9  125.51430758

  7- 5- 9  111.23183912  10- 9-11  110.25385237  10- 9-12  110.27152505  11- 9-12  107.55443573

 NUCLEAR CHARGE:                   46
 NUMBER OF PRIMITIVE AOS:        1050
 NUMBER OF SYMMETRY AOS:          846
 NUMBER OF CONTRACTIONS:          756   (  756A   )
 NUMBER OF CORE ORBITALS:           6   (    6A   )
 NUMBER OF VALENCE ORBITALS:       30   (   30A   )


 NUCLEAR REPULSION ENERGY  206.13757122


 Eigenvalues of metric

         1 0.989E-06 0.225E-05 0.319E-05 0.559E-05 0.631E-05 0.717E-05 0.100E-04 0.119E-04


 OPERATOR DM      FOR CENTER  0  COORDINATES:    0.000000    0.000000    0.000000


 **********************************************************************************************************************************
 DATASETS  * FILE   NREC   LENGTH (MB)   RECORD NAMES
              1      18       50.99       500      610      700      900      950      970     1000      129      960     1100   
                                          VAR    BASINP    GEOM    SYMINP    ZMAT    AOBASIS   BASIS     P2S    ABASIS      S 
                                         1400     1410     1200     1210     1080     1600     1650     1700   
                                           T        V       H0       H01     AOSYM     SMH    MOLCAS    OPER   

 PROGRAMS   *        TOTAL       INT
 CPU TIMES  *         1.33      1.15
 REAL TIME  *         2.77 SEC
 DISK USED  *        51.70 MB (local),      206.79 MB (total)
 GA USED    *         0.00 MB       (max)       0.00 MB       (current)
 **********************************************************************************************************************************


 PROGRAM * RHF-SCF (CLOSED SHELL)       Authors: W. Meyer, H.-J. Werner


 NUMBER OF ELECTRONS:      23+   23-    SPACE SYMMETRY=1    SPIN SYMMETRY: Singlet 
 CONVERGENCE THRESHOLDS:    1.00E-04 (Density)    1.00E-09 (Energy)
 INTEGRAL THRESHOLDS:       1.00E-13 (Initial)    1.00E-13 (Final)
 MAX. NUMBER OF ITERATIONS:       60
 INTERPOLATION TYPE:            DIIS
 INTERPOLATION STEPS:              2 (START)      1 (STEP)
 LEVEL SHIFTS:                  0.00 (CLOSED)  0.00 (OPEN) 



 Orbital guess generated from atomic densities. Full valence occupancy:   36

 Molecular orbital dump at record        2101.2

 Initial occupancy:  23

 Direct Fock-matrix evaluation.        Authors: Roland Lindh & Martin Schuetz (1993/96)

 Integral Threshold:                  0.1D-12
 Threshold for writing integrals:     0.1D-06
 Prescreening on density matrix:        ON 
 Calculation will be performed fully direct        

 ITERATION   DDIFF            GRAD            ENERGY        2-EL.EN.            DIPOLE MOMENTS         DIIS   CPU(IT)  CPU(TOT)
    1      0.000D+00      0.000D+00      -304.66295840    628.241387   -0.01048   -1.00363    0.73386    0    578.7    593.5     start
    2      0.000D+00      0.275D-02      -304.73970843    624.613214   -0.01482   -0.31644    0.23089    1    563.2   1156.7     diag
    3      0.224D-02      0.179D-02      -304.77519817    625.952495    0.03358   -0.62215    0.45439    2    541.8   1698.5     diag
    4      0.875D-03      0.307D-03      -304.77713967    626.057327    0.05047   -0.54950    0.40128    3    537.4   2235.9     diag
    5      0.239D-03      0.118D-03      -304.77744464    625.974337    0.05290   -0.57354    0.41884    4    521.8   2757.8     diag
    6      0.945D-04      0.352D-04      -304.77748064    625.983806    0.05908   -0.56448    0.41220    5    502.4   3260.2     diag
    7      0.301D-04      0.136D-04      -304.77748719    625.987054    0.05846   -0.56570    0.41310    6    491.8   3752.0     diag
    8      0.135D-04      0.507D-05      -304.77748827    625.986149    0.05913   -0.56479    0.41243    7    476.6   4228.7     diag
    9      0.491D-05      0.197D-05      -304.77748844    625.986548    0.05860   -0.56499    0.41258    8    460.1   4688.8     diag
   10      0.214D-05      0.824D-06      -304.77748846    625.986497    0.05871   -0.56469    0.41236    9    440.2   5129.0     orth
   11      0.779D-06      0.227D-06      -304.77748846    625.986576    0.05863   -0.56469    0.41236    9    417.3   5546.3     diag
   12      0.242D-06      0.612D-07      -304.77748846    625.986501    0.05862   -0.56467    0.41234    9    387.4   5933.8     diag
   13      0.711D-07      0.173D-07      -304.77748846    625.986533    0.05862   -0.56467    0.41234    0    346.4   6280.2     orth

 Final occupancy:  23

 !RHF STATE  1.1 Energy              -304.777488464306
 Nuclear energy                       206.13757122
 One-electron energy                 -823.90832627
 Two-electron energy                  312.99326659
 Virial quotient                       -1.00149948
 !RHF STATE  1.1 Dipole moment          0.05861978    -0.56467097     0.41234398
 Dipole moment /Debye                   0.14898686    -1.43515645     1.04800521

 Orbital energies:

         1.1          2.1          3.1          4.1          5.1          6.1          7.1          8.1          9.1         10.1
    -20.602303   -20.545593   -11.386297   -11.254371   -11.250668   -11.240829    -1.459241    -1.356835    -1.040105    -1.025657

        11.1         12.1         13.1         14.1         15.1         16.1         17.1         18.1         19.1         20.1
     -0.819232    -0.775643    -0.705402    -0.688896    -0.674920    -0.647523    -0.581169    -0.571538    -0.558260    -0.480913

        21.1         22.1         23.1         24.1         25.1
     -0.456905    -0.419597    -0.419000     0.024309     0.029115


 HOMO     23.1    -0.419000 =     -11.4016eV
 LUMO     24.1     0.024309 =       0.6615eV
 LUMO-HOMO         0.443309 =      12.0631eV


 **********************************************************************************************************************************
 DATASETS  * FILE   NREC   LENGTH (MB)   RECORD NAMES
              1      18       50.99       500      610      700      900      950      970     1000      129      960     1100   
                                          VAR    BASINP    GEOM    SYMINP    ZMAT    AOBASIS   BASIS     P2S    ABASIS      S 
                                         1400     1410     1200     1210     1080     1600     1650     1700   
                                           T        V       H0       H01     AOSYM     SMH    MOLCAS    OPER   

              2       4       14.51       700     1000      520     2101   
                                         GEOM     BASIS   MCVARS     RHF  

 PROGRAMS   *        TOTAL   RHF-SCF       INT
 CPU TIMES  *      6282.07   6280.74      1.15
 REAL TIME  *      6320.41 SEC
 DISK USED  *       106.88 MB (local),      427.51 MB (total)
 SF USED    *         6.87 MB
 GA USED    *         0.00 MB       (max)       0.00 MB       (current)
 **********************************************************************************************************************************
 SETTING EAB_HF         =      -304.77748846  AU                              

 Dummy atoms: C3  O1  O2  H3  C4  H4  H5  H6


 Recomputing one-electron integrals since nuclear charges changed


 PROGRAM * SEWARD (Integral evaluation for generally contracted gaussian basis sets)     Author: Roland Lindh, 1990

 Geometry written to block  1 of record 700


 Point group  C1  



 ATOMIC COORDINATES

 NR  ATOM    CHARGE       X              Y              Z

   1  C1      6.00   -1.153796032    0.429918544   -0.322391189
   2  H1      1.00    0.202928349    1.627878165   -1.198481767
   3  C2      6.00   -2.619681459   -0.992721329    0.718045901
   4  H2      1.00   -3.931959266   -2.218665825    1.614543014
   5  C3      0.00    5.407496744   -1.234869408    0.897204929
   6  O1      0.00    4.927167938    0.571901986   -0.423407020
   7  O2      0.00    3.616216622   -2.698160364    1.969977137
   8  H3      0.00    1.989163585   -2.004065873    1.463963015
   9  C4      0.00    8.007070430   -2.144677729    1.558894247
  10  H4      0.00    9.402417391   -0.939882672    0.669116089
  11  H5      0.00    8.245573740   -2.122275544    3.599865215
  12  H6      0.00    8.238140742   -4.087022420    0.929172628

 Bond lengths in Bohr (Angstrom)

 1-2  2.010806555  1-3  2.292429635  3-4  2.007167164  5-6  2.288919953  5-7  2.549655880
     ( 1.064073005)     ( 1.213101520)     ( 1.062147122)     ( 1.211244277)     ( 1.349219788)

  5- 9  2.832554905   7- 8  1.839869300   9-10  2.047004993   9-11  2.054981308   9-12  2.054907712
       ( 1.498923504)       ( 0.973616904)       ( 1.083228393)       ( 1.087449277)       ( 1.087410332)

 Bond angles

  1- 3- 4  178.92211763   2- 1- 3  177.31839717   5- 7- 8  106.80191146   5- 9-10  109.57256805

  5- 9-11  109.57389653   5- 9-12  109.58561377   6- 5- 7  123.25385323   6- 5- 9  125.51430758

  7- 5- 9  111.23183912  10- 9-11  110.25385237  10- 9-12  110.27152505  11- 9-12  107.55443573

 NUCLEAR CHARGE:                   14
 NUMBER OF PRIMITIVE AOS:        1050
 NUMBER OF SYMMETRY AOS:          846
 NUMBER OF CONTRACTIONS:          756   (  756A   )
 NUMBER OF CORE ORBITALS:           2   (    2A   )
 NUMBER OF VALENCE ORBITALS:       10   (   10A   )

 MOLECULE CHANGED: INITIALIZING OCCUPATION AND DUMP RECORDS


 NUCLEAR REPULSION ENERGY   24.62574649


 Eigenvalues of metric

         1 0.989E-06 0.225E-05 0.319E-05 0.559E-05 0.631E-05 0.717E-05 0.100E-04 0.119E-04


 OPERATOR DM      FOR CENTER  0  COORDINATES:    0.000000    0.000000    0.000000


 **********************************************************************************************************************************
 DATASETS  * FILE   NREC   LENGTH (MB)   RECORD NAMES
              1      18       50.99       500      610      700      900      950      970     1000      129      960     1100   
                                          VAR    BASINP    GEOM    SYMINP    ZMAT    AOBASIS   BASIS     P2S    ABASIS      S 
                                         1400     1410     1200     1210     1080     1600     1650     1700   
                                           T        V       H0       H01     AOSYM     SMH    MOLCAS    OPER   

              2       4       14.51       700     1000      520     2101   
                                         GEOM     BASIS   MCVARS     RHF  

 PROGRAMS   *        TOTAL       INT   RHF-SCF       INT
 CPU TIMES  *      6282.87      0.80   6280.74      1.15
 REAL TIME  *      6321.36 SEC
 DISK USED  *       106.88 MB (local),      427.51 MB (total)
 SF USED    *         6.87 MB
 GA USED    *         0.00 MB       (max)       0.00 MB       (current)
 **********************************************************************************************************************************


 PROGRAM * RHF-SCF (CLOSED SHELL)       Authors: W. Meyer, H.-J. Werner


 NUMBER OF ELECTRONS:       7+    7-    SPACE SYMMETRY=1    SPIN SYMMETRY: Singlet 
 CONVERGENCE THRESHOLDS:    1.00E-04 (Density)    1.00E-09 (Energy)
 INTEGRAL THRESHOLDS:       1.00E-13 (Initial)    1.00E-13 (Final)
 MAX. NUMBER OF ITERATIONS:       60
 INTERPOLATION TYPE:            DIIS
 INTERPOLATION STEPS:              2 (START)      1 (STEP)
 LEVEL SHIFTS:                  0.00 (CLOSED)  0.00 (OPEN) 



 Orbital guess generated from atomic densities. Full valence occupancy:   12

 Molecular orbital dump at record        2201.2

 Initial occupancy:   7

 Direct Fock-matrix evaluation.        Authors: Roland Lindh & Martin Schuetz (1993/96)

 Integral Threshold:                  0.1D-12
 Threshold for writing integrals:     0.1D-06
 Prescreening on density matrix:        ON 
 Calculation will be performed fully direct        

 ITERATION   DDIFF            GRAD            ENERGY        2-EL.EN.            DIPOLE MOMENTS         DIIS   CPU(IT)  CPU(TOT)
    1      0.000D+00      0.000D+00       -76.83803382    100.735755    0.00915   -0.00381    0.00277    0    553.4    560.8     start
    2      0.000D+00      0.165D-02       -76.85181411     99.408075    0.00852   -0.00665    0.00485    1    536.9   1097.8     diag
    3      0.998D-03      0.498D-03       -76.85311471     99.880499    0.01011   -0.00624    0.00455    2    512.9   1610.6     diag
    4      0.239D-03      0.106D-03       -76.85324319     99.811413    0.00969   -0.00705    0.00514    3    503.1   2113.7     diag
    5      0.105D-03      0.230D-04       -76.85324907     99.820686    0.01034   -0.00658    0.00480    4    478.5   2592.3     diag
    6      0.210D-04      0.443D-05       -76.85324930     99.820463    0.00980   -0.00715    0.00522    5    453.0   3045.2     diag
    7      0.440D-05      0.193D-05       -76.85324933     99.820398    0.01014   -0.00682    0.00497    6    405.1   3450.3     diag
    8      0.849D-06      0.404D-06       -76.85324933     99.820390    0.01010   -0.00686    0.00501    7    380.8   3831.1     diag
    9      0.265D-06      0.583D-07       -76.85324933     99.820389    0.01010   -0.00686    0.00500    8    333.8   4164.9     diag
   10      0.606D-07      0.183D-07       -76.85324933     99.820388    0.01010   -0.00686    0.00501    0    258.1   4423.0     orth

 Final occupancy:   7

 !RHF STATE  1.1 Energy               -76.853249326930
 Nuclear energy                        24.62574649
 One-electron energy                 -151.38918964
 Two-electron energy                   49.91019382
 Virial quotient                       -1.00265203
 !RHF STATE  1.1 Dipole moment          0.01009861    -0.00686276     0.00500501
 Dipole moment /Debye                   0.02566644    -0.01744226     0.01272064

 Orbital energies:

         1.1          2.1          3.1          4.1          5.1          6.1          7.1          8.1          9.1
    -11.246172   -11.242581    -1.027578    -0.769112    -0.681102    -0.408936    -0.408920     0.020003     0.027491


 HOMO      7.1    -0.408920 =     -11.1273eV
 LUMO      8.1     0.020003 =       0.5443eV
 LUMO-HOMO         0.428924 =      11.6716eV


 **********************************************************************************************************************************
 DATASETS  * FILE   NREC   LENGTH (MB)   RECORD NAMES
              1      18       50.99       500      610      700      900      950      970     1000      129      960     1100   
                                          VAR    BASINP    GEOM    SYMINP    ZMAT    AOBASIS   BASIS     P2S    ABASIS      S 
                                         1400     1410     1200     1210     1080     1600     1650     1700   
                                           T        V       H0       H01     AOSYM     SMH    MOLCAS    OPER   

              2       5       39.91       700     1000      520     2101     2201   
                                         GEOM     BASIS   MCVARS     RHF      RHF  

 PROGRAMS   *        TOTAL   RHF-SCF       INT   RHF-SCF       INT
 CPU TIMES  *     10706.47   4423.60      0.80   6280.74      1.15
 REAL TIME  *     10770.61 SEC
 DISK USED  *       129.98 MB (local),      519.92 MB (total)
 SF USED    *         6.87 MB
 GA USED    *         0.00 MB       (max)       0.00 MB       (current)
 **********************************************************************************************************************************
 SETTING EA_HF          =       -76.85324933  AU                              

 Dummy atoms: C1  H1  C2  H2


 Recomputing one-electron integrals since nuclear charges changed


 PROGRAM * SEWARD (Integral evaluation for generally contracted gaussian basis sets)     Author: Roland Lindh, 1990

 Geometry written to block  1 of record 700


 Point group  C1  



 ATOMIC COORDINATES

 NR  ATOM    CHARGE       X              Y              Z

   1  C1      0.00   -1.153796032    0.429918544   -0.322391189
   2  H1      0.00    0.202928349    1.627878165   -1.198481767
   3  C2      0.00   -2.619681459   -0.992721329    0.718045901
   4  H2      0.00   -3.931959266   -2.218665825    1.614543014
   5  C3      6.00    5.407496744   -1.234869408    0.897204929
   6  O1      8.00    4.927167938    0.571901986   -0.423407020
   7  O2      8.00    3.616216622   -2.698160364    1.969977137
   8  H3      1.00    1.989163585   -2.004065873    1.463963015
   9  C4      6.00    8.007070430   -2.144677729    1.558894247
  10  H4      1.00    9.402417391   -0.939882672    0.669116089
  11  H5      1.00    8.245573740   -2.122275544    3.599865215
  12  H6      1.00    8.238140742   -4.087022420    0.929172628

 Bond lengths in Bohr (Angstrom)

 1-2  2.010806555  1-3  2.292429635  3-4  2.007167164  5-6  2.288919953  5-7  2.549655880
     ( 1.064073005)     ( 1.213101520)     ( 1.062147122)     ( 1.211244277)     ( 1.349219788)

  5- 9  2.832554905   7- 8  1.839869300   9-10  2.047004993   9-11  2.054981308   9-12  2.054907712
       ( 1.498923504)       ( 0.973616904)       ( 1.083228393)       ( 1.087449277)       ( 1.087410332)

 Bond angles

  1- 3- 4  178.92211763   2- 1- 3  177.31839717   5- 7- 8  106.80191146   5- 9-10  109.57256805

  5- 9-11  109.57389653   5- 9-12  109.58561377   6- 5- 7  123.25385323   6- 5- 9  125.51430758

  7- 5- 9  111.23183912  10- 9-11  110.25385237  10- 9-12  110.27152505  11- 9-12  107.55443573

 NUCLEAR CHARGE:                   32
 NUMBER OF PRIMITIVE AOS:        1050
 NUMBER OF SYMMETRY AOS:          846
 NUMBER OF CONTRACTIONS:          756   (  756A   )
 NUMBER OF CORE ORBITALS:           4   (    4A   )
 NUMBER OF VALENCE ORBITALS:       20   (   20A   )

 MOLECULE CHANGED: INITIALIZING OCCUPATION AND DUMP RECORDS


 NUCLEAR REPULSION ENERGY  121.22795390


 Eigenvalues of metric

         1 0.989E-06 0.225E-05 0.319E-05 0.559E-05 0.631E-05 0.717E-05 0.100E-04 0.119E-04


 OPERATOR DM      FOR CENTER  0  COORDINATES:    0.000000    0.000000    0.000000


 **********************************************************************************************************************************
 DATASETS  * FILE   NREC   LENGTH (MB)   RECORD NAMES
              1      18       50.99       500      610      700      900      950      970     1000      129      960     1100   
                                          VAR    BASINP    GEOM    SYMINP    ZMAT    AOBASIS   BASIS     P2S    ABASIS      S 
                                         1400     1410     1200     1210     1080     1600     1650     1700   
                                           T        V       H0       H01     AOSYM     SMH    MOLCAS    OPER   

              2       5       39.91       700     1000      520     2101     2201   
                                         GEOM     BASIS   MCVARS     RHF      RHF  

 PROGRAMS   *        TOTAL       INT   RHF-SCF       INT   RHF-SCF       INT
 CPU TIMES  *     10707.26      0.78   4423.60      0.80   6280.74      1.15
 REAL TIME  *     10771.55 SEC
 DISK USED  *       129.98 MB (local),      519.92 MB (total)
 SF USED    *         6.87 MB
 GA USED    *         0.00 MB       (max)       0.00 MB       (current)
 **********************************************************************************************************************************


 PROGRAM * RHF-SCF (CLOSED SHELL)       Authors: W. Meyer, H.-J. Werner


 NUMBER OF ELECTRONS:      16+   16-    SPACE SYMMETRY=1    SPIN SYMMETRY: Singlet 
 CONVERGENCE THRESHOLDS:    1.00E-04 (Density)    1.00E-09 (Energy)
 INTEGRAL THRESHOLDS:       1.00E-13 (Initial)    1.00E-13 (Final)
 MAX. NUMBER OF ITERATIONS:       60
 INTERPOLATION TYPE:            DIIS
 INTERPOLATION STEPS:              2 (START)      1 (STEP)
 LEVEL SHIFTS:                  0.00 (CLOSED)  0.00 (OPEN) 



 Orbital guess generated from atomic densities. Full valence occupancy:   24

 Molecular orbital dump at record        2301.2

 Initial occupancy:  16

 Direct Fock-matrix evaluation.        Authors: Roland Lindh & Martin Schuetz (1993/96)

 Integral Threshold:                  0.1D-12
 Threshold for writing integrals:     0.1D-06
 Prescreening on density matrix:        ON 
 Calculation will be performed fully direct        

 ITERATION   DDIFF            GRAD            ENERGY        2-EL.EN.            DIPOLE MOMENTS         DIIS   CPU(IT)  CPU(TOT)
    1      0.000D+00      0.000D+00      -227.81692964    407.150818    0.08330   -1.04746    0.76609    0    572.6    584.2     start
    2      0.000D+00      0.313D-02      -227.88149296    404.461728    0.10912   -0.42125    0.30783    1    555.8   1140.0     diag
    3      0.204D-02      0.218D-02      -227.91787724    405.487604    0.16292   -0.69757    0.50981    2    545.8   1685.7     diag
    4      0.855D-03      0.327D-03      -227.91955123    405.588449    0.16107   -0.63018    0.46052    3    529.2   2214.9     diag
    5      0.199D-03      0.139D-03      -227.91984906    405.514108    0.16820   -0.64576    0.47190    4    512.8   2727.7     diag
    6      0.856D-04      0.402D-04      -227.91988580    405.531753    0.17191   -0.63904    0.46697    5    498.6   3226.2     diag
    7      0.293D-04      0.160D-04      -227.91989284    405.531132    0.17155   -0.63814    0.46632    6    479.9   3706.1     diag
    8      0.134D-04      0.623D-05      -227.91989404    405.531528    0.17156   -0.63751    0.46585    7    462.8   4168.9     diag
    9      0.515D-05      0.212D-05      -227.91989421    405.531606    0.17138   -0.63716    0.46559    8    445.2   4614.1     diag
   10      0.226D-05      0.467D-06      -227.91989421    405.531798    0.17129   -0.63704    0.46551    9    412.4   5026.5     orth
   11      0.511D-06      0.117D-06      -227.91989421    405.531647    0.17127   -0.63702    0.46550    9    379.1   5405.6     diag
   12      0.102D-06      0.343D-07      -227.91989421    405.531715    0.17127   -0.63702    0.46549    0    343.8   5749.5     orth

 Final occupancy:  16

 !RHF STATE  1.1 Energy              -227.919894214782
 Nuclear energy                       121.22795390
 One-electron energy                 -551.91370556
 Two-electron energy                  202.76585744
 Virial quotient                       -1.00129177
 !RHF STATE  1.1 Dipole moment          0.17127152    -0.63701870     0.46549440
 Dipole moment /Debye                   0.43530028    -1.61903398     1.18309125

 Orbital energies:

         1.1          2.1          3.1          4.1          5.1          6.1          7.1          8.1          9.1         10.1
    -20.615176   -20.548777   -11.389583   -11.244295    -1.466569    -1.361425    -1.029884    -0.826538    -0.707471    -0.682167

        11.1         12.1         13.1         14.1         15.1         16.1         17.1         18.1
     -0.653352    -0.585331    -0.575331    -0.563901    -0.484684    -0.456512     0.019191     0.028011


 HOMO     16.1    -0.456512 =     -12.4223eV
 LUMO     17.1     0.019191 =       0.5222eV
 LUMO-HOMO         0.475702 =      12.9445eV


 **********************************************************************************************************************************
 DATASETS  * FILE   NREC   LENGTH (MB)   RECORD NAMES
              1      18       50.99       500      610      700      900      950      970     1000      129      960     1100   
                                          VAR    BASINP    GEOM    SYMINP    ZMAT    AOBASIS   BASIS     P2S    ABASIS      S 
                                         1400     1410     1200     1210     1080     1600     1650     1700   
                                           T        V       H0       H01     AOSYM     SMH    MOLCAS    OPER   

              2       6       65.30       700     1000      520     2101     2201     2301   
                                         GEOM     BASIS   MCVARS     RHF      RHF      RHF  

 PROGRAMS   *        TOTAL   RHF-SCF       INT   RHF-SCF       INT   RHF-SCF       INT
 CPU TIMES  *     16457.32   5750.05      0.78   4423.60      0.80   6280.74      1.15
 REAL TIME  *     16554.19 SEC
 DISK USED  *       157.66 MB (local),      630.65 MB (total)
 SF USED    *         6.87 MB
 GA USED    *         0.00 MB       (max)       0.00 MB       (current)
 **********************************************************************************************************************************
 SETTING EB_HF          =      -227.91989421  AU                              
 SETTING E_AB_INT       =        -0.00434492  AU                              

 *** results in hartree
 E_AB_INT         =        -0.00434492 AU
 Molecular orbitals read from record     2301.2  Type=RHF/CANONICAL (state 1.1)
 Occupation numbers read from record     2301.2  Type=RHF/RHF (state 1.1)
 Orbital energies read from record       2301.2  Type=RHF/CANONICAL (state 1.1)
 Redundancy group numbers read from rec  2301.2  Type=RHF/RHF (state 1.1)

 RHF/aug-cc-pVQZ energy=   -227.919894214782

         RHF-SCF         RHF-SCF         RHF-SCF
   -227.91989421    -76.85324933   -304.77748846
 **********************************************************************************************************************************
 Molpro calculation terminated
Fri 22 Nov 2019 01:57:11 PM CET
