 vasp.6.1.2 22Jul20 (build Jan  6 2021 09:55:43) gamma-only                      
 executed on             LinuxPGI date 2021.04.04  06:55:52
 running on   16 total cores
 distrk:  each k-point on   16 cores,    1 groups
 distr:  one band on NCORE=   8 cores,    2 groups


--------------------------------------------------------------------------------------------------------


 INCAR:
 POTCAR:    PAW_PBE H_h 06Feb2004                 
 POTCAR:    PAW_PBE O_h 06Feb2004                 
 POTCAR:    PAW_PBE H_h 06Feb2004                 
   VRHFIN =H: ultrasoft test                                                                        
   LEXCH  = PE                                                                                      
   EATOM  =    12.4884 eV,    0.9179 Ry                                                             
                                                                                                    
   TITEL  = PAW_PBE H_h 06Feb2004                                                                   
   LULTRA =        F    use ultrasoft PP ?                                                          
   IUNSCR =        0    unscreen: 0-lin 1-nonlin 2-no                                               
   RPACOR =    0.000    partial core radius                                                         
   POMASS =    1.000; ZVAL   =    1.000    mass and valenz                                          
   RCORE  =    0.800    outmost cutoff radius                                                       
   RWIGS  =    0.700; RWIGS  =    0.370    wigner-seitz radius (au A)                               
   ENMAX  =  700.000; ENMIN  =  350.000 eV                                                          
   RCLOC  =    0.701    cutoff for local pot                                                        
   LCOR   =        T    correct aug charges                                                         
   LPAW   =        T    paw PP                                                                      
   EAUG   = 1000.000                                                                                
   RMAX   =    0.819    core radius for proj-oper                                                   
   RAUG   =    1.000    factor for augmentation sphere                                              
   RDEP   =    0.817    radius for radial grids                                                     
   RDEPT  =    0.817    core radius for aug-charge                                                  
                                                                                                    
   Atomic configuration                                                                             
    2 entries                                                                                       
     n  l   j            E        occ.                                                              
     1  0  0.50        -6.4927   1.0000                                                             
     2  1  0.50        -3.4015   0.0000                                                             
   Description                                                                                      
     l       E           TYP  RCUT    TYP  RCUT                                                     
     0     -6.4927493     23  0.800                                                                 
     0      6.8029130     23  0.800                                                                 
     1     -6.8029130     23  0.800                                                                 
  local pseudopotential read in
  atomic valenz-charges read in
  non local Contribution for L=            0  read in
    real space projection operators read in
  non local Contribution for L=            0  read in
    real space projection operators read in
  non local Contribution for L=            1  read in
    real space projection operators read in
    PAW grid and wavefunctions read in
 
   number of l-projection  operators is LMAX  =            3
   number of lm-projection operators is LMMAX =            5
 
 POTCAR:    PAW_PBE O_h 06Feb2004                 
   VRHFIN =O: s2p4                                                                                  
   LEXCH  = PE                                                                                      
   EATOM  =   432.3788 eV,   31.7789 Ry                                                             
                                                                                                    
   TITEL  = PAW_PBE O_h 06Feb2004                                                                   
   LULTRA =        F    use ultrasoft PP ?                                                          
   IUNSCR =        1    unscreen: 0-lin 1-nonlin 2-no                                               
   RPACOR =    0.800    partial core radius                                                         
   POMASS =   16.000; ZVAL   =    6.000    mass and valenz                                          
   RCORE  =    1.100    outmost cutoff radius                                                       
   RWIGS  =    1.400; RWIGS  =    0.741    wigner-seitz radius (au A)                               
   ENMAX  =  700.000; ENMIN  =  500.000 eV                                                          
   ICORE  =        2    local potential                                                             
   LCOR   =        T    correct aug charges                                                         
   LPAW   =        T    paw PP                                                                      
   EAUG   =  888.804                                                                                
   DEXC   =    0.000                                                                                
   RMAX   =    1.128    core radius for proj-oper                                                   
   RAUG   =    1.300    factor for augmentation sphere                                              
   RDEP   =    1.125    radius for radial grids                                                     
   RDEPT  =    1.088    core radius for aug-charge                                                  
                                                                                                    
   Atomic configuration                                                                             
    4 entries                                                                                       
     n  l   j            E        occ.                                                              
     1  0  0.50      -514.6923   2.0000                                                             
     2  0  0.50       -23.9615   2.0000                                                             
     2  1  0.50        -9.0305   4.0000                                                             
     3  2  1.50        -9.5241   0.0000                                                             
   Description                                                                                      
     l       E           TYP  RCUT    TYP  RCUT                                                     
     0    -23.9615319     23  1.100                                                                 
     0    -25.3221145     23  1.100                                                                 
     1     -9.0304911     23  1.100                                                                 
     1     -5.4802209     23  1.100                                                                 
     2     -9.5240782      7  1.100                                                                 
  local pseudopotential read in
  partial core-charges read in
  partial kinetic energy density read in
  atomic valenz-charges read in
  non local Contribution for L=            0  read in
    real space projection operators read in
  non local Contribution for L=            0  read in
    real space projection operators read in
  non local Contribution for L=            1  read in
    real space projection operators read in
  non local Contribution for L=            1  read in
    real space projection operators read in
    PAW grid and wavefunctions read in
 
   number of l-projection  operators is LMAX  =            4
   number of lm-projection operators is LMMAX =            8
 
  PAW_PBE H_h 06Feb2004                 :
 energy of atom  1       EATOM=  -12.4884
 kinetic energy error for atom=    0.0001 (will be added to EATOM!!)
  PAW_PBE O_h 06Feb2004                 :
 energy of atom  2       EATOM= -432.3788
 kinetic energy error for atom=    0.0016 (will be added to EATOM!!)
 
 
 POSCAR:  H  O
  positions in cartesian coordinates
  No initial velocities read in
 exchange correlation table for  LEXCH =        8
   RHO(1)=    0.500       N(1)  =     2000
   RHO(2)=  100.500       N(2)  =     4000
 


--------------------------------------------------------------------------------------------------------


 ion  position               nearest neighbor table
   1  0.001  0.113  0.973-   3 0.96
   2  0.000  0.079  0.000-   3 0.96
   3  0.000  0.106  0.000-   2 0.96   1 0.96
 
  LATTYP: Found a simple cubic cell.
 ALAT       =    35.0000000000
  
  Lattice vectors:
  
 A1 = (  35.0000000000,   0.0000000000,   0.0000000000)
 A2 = (   0.0000000000,  35.0000000000,   0.0000000000)
 A3 = (   0.0000000000,   0.0000000000,  35.0000000000)


Analysis of symmetry for initial positions (statically):
=====================================================================
 Subroutine PRICEL returns:
 Original cell was already a primitive cell.
 

 Routine SETGRP: Setting up the symmetry group for a 
 simple cubic supercell.


 Subroutine GETGRP returns: Found  1 space group operations
 (whereof  1 operations were pure point group operations)
 out of a pool of 48 trial point group operations.


The static configuration has the point symmetry C_1 .


Analysis of symmetry for dynamics (positions and initial velocities):
=====================================================================
 Subroutine PRICEL returns:
 Original cell was already a primitive cell.
 

 Routine SETGRP: Setting up the symmetry group for a 
 simple cubic supercell.


 Subroutine GETGRP returns: Found  1 space group operations
 (whereof  1 operations were pure point group operations)
 out of a pool of 48 trial point group operations.


The dynamic configuration has the point symmetry C_1 .


 Subroutine INISYM returns: Found  1 space group operations
 (whereof  1 operations are pure point group operations),
 and found     1 'primitive' translations


----------------------------------------------------------------------------------------

                                     Primitive cell                                     

  volume of cell :   42875.0000

  direct lattice vectors                    reciprocal lattice vectors
    35.000000000  0.000000000  0.000000000     0.028571429  0.000000000  0.000000000
     0.000000000 35.000000000  0.000000000     0.000000000  0.028571429  0.000000000
     0.000000000  0.000000000 35.000000000     0.000000000  0.000000000  0.028571429

  length of vectors
    35.000000000 35.000000000 35.000000000     0.028571429  0.028571429  0.028571429

  position of ions in fractional coordinates (direct lattice)
     0.001011704  0.112976117  0.973379868
     0.000000000  0.078813600  0.000000000
     0.000000000  0.106281314  0.000000000

  ion indices of the primitive-cell ions
   primitive index   ion index
                 1           1
                 2           2
                 3           3

----------------------------------------------------------------------------------------

 
 
 KPOINTS: automatic mesh                          

Automatic generation of k-mesh.
Space group operators:
 irot       det(A)        alpha          n_x          n_y          n_z        tau_x        tau_y        tau_z
    1     1.000000     0.000000     1.000000     0.000000     0.000000     0.000000     0.000000     0.000000
 
 Subroutine IBZKPT returns following result:
 ===========================================
 
 Found      1 irreducible k-points:
 
 Following reciprocal coordinates:
            Coordinates               Weight
  0.000000  0.000000  0.000000      1.000000
 
 Following cartesian coordinates:
            Coordinates               Weight
  0.000000  0.000000  0.000000      1.000000
 


--------------------------------------------------------------------------------------------------------




 Dimension of arrays:
   k-points           NKPTS =      1   k-points in BZ     NKDIM =      1   number of bands    NBANDS=      8
   number of dos      NEDOS =    301   number of ions     NIONS =      3
   non local maximal  LDIM  =      4   non local SUM 2l+1 LMDIM =      8
   total plane-waves  NPLWV = ******
   max r-space proj   IRMAX =      1   max aug-charges    IRDMAX=  23028
   dimension x,y,z NGX =   512 NGY =  512 NGZ =  512
   dimension x,y,z NGXF=  1024 NGYF= 1024 NGZF= 1024
   support grid    NGXF=  1024 NGYF= 1024 NGZF= 1024
   ions per type =               2   1
   NGX,Y,Z   is equivalent  to a cutoff of  24.32, 24.32, 24.32 a.u.
   NGXF,Y,Z  is equivalent  to a cutoff of  48.64, 48.64, 48.64 a.u.

 SYSTEM =  C                                       
 POSCAR =   H  O                                   

 Startparameter for this run:
   NWRITE =      2    write-flag & timer
   PREC   = acc       normal or accurate (medium, high low for compatibility)
   ISTART =      0    job   : 0-new  1-cont  2-samecut
   ICHARG =      2    charge: 1-file 2-atom 10-const
   ISPIN  =      1    spin polarized calculation?
   LNONCOLLINEAR =      F non collinear calculations
   LSORBIT =      F    spin-orbit coupling
   INIWAV =      1    electr: 0-lowe 1-rand  2-diag
   LASPH  =      T    aspherical Exc in radial PAW
   METAGGA=      F    non-selfconsistent MetaGGA calc.

 Electronic Relaxation 1
   ENCUT  = 2000.0 eV 147.00 Ry   12.12 a.u. 127.63127.63127.63*2*pi/ulx,y,z
   ENINI  = 2000.0     initial cutoff
   ENAUG  = 1000.0 eV  augmentation charge cutoff
   NELM   =     60;   NELMIN=  2; NELMDL= -5     # of ELM steps 
   EDIFF  = 0.1E-06   stopping-criterion for ELM
   LREAL  =      F    real-space projection
   NLSPLINE    = F    spline interpolate recip. space projectors
   LCOMPAT=      F    compatible to vasp.4.4
   GGA_COMPAT  = T    GGA compatible to vasp.4.4-vasp.4.6
   LMAXPAW     = -100 max onsite density
   LMAXMIX     =    2 max onsite mixed and CHGCAR
   VOSKOWN=      0    Vosko Wilk Nusair interpolation
   ROPT   =    0.00000   0.00000
 Ionic relaxation
   EDIFFG = 0.1E-05   stopping-criterion for IOM
   NSW    =      0    number of steps for IOM
   NBLOCK =      1;   KBLOCK =      1    inner block; outer block 
   IBRION =     -1    ionic relax: 0-MD 1-quasi-New 2-CG
   NFREE  =      0    steps in history (QN), initial steepest desc. (CG)
   ISIF   =      2    stress and relaxation
   IWAVPR =     10    prediction:  0-non 1-charg 2-wave 3-comb
   ISYM   =      2    0-nonsym 1-usesym 2-fastsym
   LCORR  =      T    Harris-Foulkes like correction to forces

   POTIM  = 0.5000    time-step for ionic-motion
   TEIN   =    0.0    initial temperature
   TEBEG  =    0.0;   TEEND  =   0.0 temperature during run
   SMASS  =  -3.00    Nose mass-parameter (am)
   estimated Nose-frequenzy (Omega)   =  0.10E-29 period in steps = 0.13E+47 mass=  -0.280E-25a.u.
   SCALEE = 1.0000    scale energy and forces
   NPACO  =    256;   APACO  = 16.0  distance and # of slots for P.C.
   PSTRESS=    0.0 pullay stress

  Mass of Ions in am
   POMASS =   1.00 16.00
  Ionic Valenz
   ZVAL   =   1.00  6.00
  Atomic Wigner-Seitz radii
   RWIGS  =  -1.00 -1.00
  virtual crystal weights 
   VCA    =   1.00  1.00
   NELECT =       8.0000    total number of electrons
   NUPDOWN=      -1.0000    fix difference up-down

 DOS related values:
   EMIN   =  10.00;   EMAX   =-10.00  energy-range for DOS
   EFERMI =   0.00
   ISMEAR =     0;   SIGMA  =   0.01  broadening in eV -4-tet -1-fermi 0-gaus

 Electronic relaxation 2 (details)
   IALGO  =     38    algorithm
   LDIAG  =      T    sub-space diagonalisation (order eigenvalues)
   LSUBROT=      F    optimize rotation matrix (better conditioning)
   TURBO    =      0    0=normal 1=particle mesh
   IRESTART =      0    0=no restart 2=restart with 2 vectors
   NREBOOT  =      0    no. of reboots
   NMIN     =      0    reboot dimension
   EREF     =   0.00    reference energy to select bands
   IMIX   =      4    mixing-type and parameters
     AMIX     =   0.40;   BMIX     =  1.00
     AMIX_MAG =   1.60;   BMIX_MAG =  1.00
     AMIN     =   0.10
     WC   =   100.;   INIMIX=   1;  MIXPRE=   1;  MAXMIX= -45

 Intra band minimization:
   WEIMIN = 0.0000     energy-eigenvalue tresh-hold
   EBREAK =  0.31E-08  absolut break condition
   DEPER  =   0.30     relativ break condition  

   TIME   =   0.40     timestep for ELM

  volume/ion in A,a.u.               =   14291.67     96444.93
  Fermi-wavevector in a.u.,A,eV,Ry     =   0.093548  0.176781  0.119069  0.008751
  Thomas-Fermi vector in A             =   0.652187
 
 Write flags
   LWAVE        =      T    write WAVECAR
   LDOWNSAMPLE  =      F    k-point downsampling of WAVECAR
   LCHARG       =      T    write CHGCAR
   LVTOT        =      F    write LOCPOT, total local potential
   LVHAR        =      F    write LOCPOT, Hartree potential only
   LELF         =      F    write electronic localiz. function (ELF)
   LORBIT       =      0    0 simple, 1 ext, 2 COOP (PROOUT), +10 PAW based schemes


 Dipole corrections
   LMONO  =      F    monopole corrections only (constant potential shift)
   LDIPOL =      F    correct potential (dipole corrections)
   IDIPOL =      4    1-x, 2-y, 3-z, 4-all directions 
   EPSILON=  1.0000000 bulk dielectric constant

 Exchange correlation treatment:
   GGA     =    --    GGA type
   LEXCH   =     8    internal setting for exchange type
   VOSKOWN=      0    Vosko Wilk Nusair interpolation
   LHFCALC =     F    Hartree Fock is set to
   LHFONE  =     F    Hartree Fock one center treatment
   AEXX    =    0.0000 exact exchange contribution

 Linear response parameters
   LEPSILON=     F    determine dielectric tensor
   LRPA    =     F    only Hartree local field effects (RPA)
   LNABLA  =     F    use nabla operator in PAW spheres
   LVEL    =     F    velocity operator in full k-point grid
   LINTERFAST=   F  fast interpolation
   KINTER  =     0    interpolate to denser k-point grid
   CSHIFT  =0.1000    complex shift for real part using Kramers Kronig
   OMEGAMAX=  -1.0    maximum frequency
   DEG_THRESHOLD= 0.2000000E-02 threshold for treating states as degnerate
   RTIME   =   -0.100 relaxation time in fs
  (WPLASMAI=    0.000 imaginary part of plasma frequency in eV, 0.658/RTIME)
   DFIELD  = 0.0000000 0.0000000 0.0000000 field for delta impulse in time
 
 Orbital magnetization related:
   ORBITALMAG=     F  switch on orbital magnetization
   LCHIMAG   =     F  perturbation theory with respect to B field
   DQ        =  0.001000  dq finite difference perturbation B field
   LLRAUG    =     F  two centre corrections for induced B field



--------------------------------------------------------------------------------------------------------


 Static calculation
 charge density and potential will be updated during run
 non-spin polarized calculation
 Variant of blocked Davidson
 Davidson routine will perform the subspace rotation
 perform sub-space diagonalisation
    after iterative eigenvector-optimisation
 modified Broyden-mixing scheme, WC =      100.0
 initial mixing is a Kerker type mixing with AMIX =  0.4000 and BMIX =      1.0000
 Hartree-type preconditioning will be used
 using additional bands             4
 reciprocal scheme for non local part
 use partial core corrections
 calculate Harris-corrections to forces 
   (improved forces if not selfconsistent)
 use gradient corrections 
 use of overlap-Matrix (Vanderbilt PP)
 Gauss-broadening in eV      SIGMA  =   0.01


--------------------------------------------------------------------------------------------------------


  energy-cutoff  :     2000.00
  volume of cell :    42875.00
      direct lattice vectors                 reciprocal lattice vectors
    35.000000000  0.000000000  0.000000000     0.028571429  0.000000000  0.000000000
     0.000000000 35.000000000  0.000000000     0.000000000  0.028571429  0.000000000
     0.000000000  0.000000000 35.000000000     0.000000000  0.000000000  0.028571429

  length of vectors
    35.000000000 35.000000000 35.000000000     0.028571429  0.028571429  0.028571429


 
 k-points in units of 2pi/SCALE and weight: automatic mesh                          
   0.00000000  0.00000000  0.00000000       1.000
 
 k-points in reciprocal lattice and weights: automatic mesh                          
   0.00000000  0.00000000  0.00000000       1.000
 
 position of ions in fractional coordinates (direct lattice) 
   0.00101170  0.11297612  0.97337987
   0.00000000  0.07881360  0.00000000
   0.00000000  0.10628131  0.00000000
 
 position of ions in cartesian coordinates  (Angst):
   0.03540965  3.95416408 34.06829539
   0.00000000  2.75847600  0.00000000
   0.00000000  3.71984600  0.00000000
 


--------------------------------------------------------------------------------------------------------


 use parallel FFT for orbitals z direction half grid
 k-point   1 :   0.0000 0.0000 0.0000  plane waves: 4353902

 maximum and minimum number of plane-waves per node :    544247   544233

 maximum number of plane-waves:   4353902
 maximum index in each direction: 
   IXMAX=  127   IYMAX=  127   IZMAX=  127
   IXMIN= -127   IYMIN= -127   IZMIN=    0


 parallel 3D FFT for wavefunctions:
    minimum data exchange during FFTs selected (reduces bandwidth)
 parallel 3D FFT for charge:
    minimum data exchange during FFTs selected (reduces bandwidth)


 total amount of memory used by VASP MPI-rank0  7197737. kBytes
=======================================================================

   base      :      30000. kBytes
   nonl-proj :      95785. kBytes
   fftplans  :    2602168. kBytes
   grid      :    4434952. kBytes
   one-center:          1. kBytes
   wavefun   :      34831. kBytes
 
     INWAV:  cpu time    0.0000: real time    0.0000
 Broyden mixing: mesh for mixing (old mesh)
   NGX =255   NGY =255   NGZ =255
  (NGX  =***   NGY  =***   NGZ  =***)
  gives a total of ****** points

 initial charge density was supplied:
 charge density of overlapping atoms calculated
 number of electron       8.0000000 magnetization 
 keeping initial charge density in first step


--------------------------------------------------------------------------------------------------------


 Maximum index for augmentation-charges          1249 (set IRDMAX)


--------------------------------------------------------------------------------------------------------


 First call to EWALD:  gamma=   0.051
 Maximum number of real-space cells 3x 3x 3
 Maximum number of reciprocal cells 3x 3x 3

    FEWALD:  cpu time    0.0008: real time    0.0008


--------------------------------------- Iteration      1(   1)  ---------------------------------------


    POTLOK:  cpu time   40.2771: real time   40.3469
    SETDIJ:  cpu time    0.0445: real time    0.0458
     EDDAV:  cpu time   12.4099: real time   12.4418
       DOS:  cpu time    0.0089: real time    0.0089
    --------------------------------------------
      LOOP:  cpu time   52.7405: real time   52.8434

 eigenvalue-minimisations  :    24
 total energy-change (2. order) : 0.8417862E+02  (-0.1389005E+03)
 number of electron       8.0000000 magnetization 
 augmentation part        8.0000000 magnetization 

 Free energy of the ion-electron system (eV)
  ---------------------------------------------------
  alpha Z        PSCENC =         0.00380616
  Ewald energy   TEWEN  =       151.89277050
  -Hartree energ DENC   =      -508.44242511
  -exchange      EXHF   =         0.00000000
  -V(xc)+E(xc)   XCENC  =        30.52746206
  PAW double counting   =       348.70817470     -349.92881487
  entropy T*S    EENTRO =        -0.00206861
  eigenvalues    EBANDS =       -45.93412848
  atomic energy  EATOM  =       457.35384856
  Solvation  Ediel_sol  =         0.00000000
  ---------------------------------------------------
  free energy    TOTEN  =        84.17862491 eV

  energy without entropy =       84.18069353  energy(sigma->0) =       84.17965922


--------------------------------------------------------------------------------------------------------




--------------------------------------- Iteration      1(   2)  ---------------------------------------


     EDDAV:  cpu time   15.3755: real time   15.4180
       DOS:  cpu time    0.0038: real time    0.0038
    --------------------------------------------
      LOOP:  cpu time   15.3793: real time   15.4218

 eigenvalue-minimisations  :    32
 total energy-change (2. order) :-0.4527722E+02  (-0.4522825E+02)
 number of electron       8.0000000 magnetization 
 augmentation part        8.0000000 magnetization 

 Free energy of the ion-electron system (eV)
  ---------------------------------------------------
  alpha Z        PSCENC =         0.00380616
  Ewald energy   TEWEN  =       151.89277050
  -Hartree energ DENC   =      -508.44242511
  -exchange      EXHF   =         0.00000000
  -V(xc)+E(xc)   XCENC  =        30.52746206
  PAW double counting   =       348.70817470     -349.92881487
  entropy T*S    EENTRO =        -0.00000000
  eigenvalues    EBANDS =       -91.21341515
  atomic energy  EATOM  =       457.35384856
  Solvation  Ediel_sol  =         0.00000000
  ---------------------------------------------------
  free energy    TOTEN  =        38.90140686 eV

  energy without entropy =       38.90140686  energy(sigma->0) =       38.90140686


--------------------------------------------------------------------------------------------------------




--------------------------------------- Iteration      1(   3)  ---------------------------------------


     EDDAV:  cpu time   12.4786: real time   12.5079
       DOS:  cpu time    0.0073: real time    0.0073
    --------------------------------------------
      LOOP:  cpu time   12.4859: real time   12.5152

 eigenvalue-minimisations  :    24
 total energy-change (2. order) :-0.4435082E+02  (-0.4435082E+02)
 number of electron       8.0000000 magnetization 
 augmentation part        8.0000000 magnetization 

 Free energy of the ion-electron system (eV)
  ---------------------------------------------------
  alpha Z        PSCENC =         0.00380616
  Ewald energy   TEWEN  =       151.89277050
  -Hartree energ DENC   =      -508.44242511
  -exchange      EXHF   =         0.00000000
  -V(xc)+E(xc)   XCENC  =        30.52746206
  PAW double counting   =       348.70817470     -349.92881487
  entropy T*S    EENTRO =        -0.00000000
  eigenvalues    EBANDS =      -135.56423941
  atomic energy  EATOM  =       457.35384856
  Solvation  Ediel_sol  =         0.00000000
  ---------------------------------------------------
  free energy    TOTEN  =        -5.44941740 eV

  energy without entropy =       -5.44941740  energy(sigma->0) =       -5.44941740


--------------------------------------------------------------------------------------------------------




--------------------------------------- Iteration      1(   4)  ---------------------------------------


     EDDAV:  cpu time    9.4268: real time    9.4490
       DOS:  cpu time    0.0031: real time    0.0031
    --------------------------------------------
      LOOP:  cpu time    9.4299: real time    9.4521

 eigenvalue-minimisations  :    16
 total energy-change (2. order) :-0.1063702E+02  (-0.1063702E+02)
 number of electron       8.0000000 magnetization 
 augmentation part        8.0000000 magnetization 

 Free energy of the ion-electron system (eV)
  ---------------------------------------------------
  alpha Z        PSCENC =         0.00380616
  Ewald energy   TEWEN  =       151.89277050
  -Hartree energ DENC   =      -508.44242511
  -exchange      EXHF   =         0.00000000
  -V(xc)+E(xc)   XCENC  =        30.52746206
  PAW double counting   =       348.70817470     -349.92881487
  entropy T*S    EENTRO =        -0.00000000
  eigenvalues    EBANDS =      -146.20126132
  atomic energy  EATOM  =       457.35384856
  Solvation  Ediel_sol  =         0.00000000
  ---------------------------------------------------
  free energy    TOTEN  =       -16.08643932 eV

  energy without entropy =      -16.08643932  energy(sigma->0) =      -16.08643932


--------------------------------------------------------------------------------------------------------




--------------------------------------- Iteration      1(   5)  ---------------------------------------


     EDDAV:  cpu time   15.3600: real time   15.3913
       DOS:  cpu time    0.0054: real time    0.0054
    CHARGE:  cpu time    4.2837: real time    4.2937
    MIXING:  cpu time    0.9391: real time    0.9403
    --------------------------------------------
      LOOP:  cpu time   20.5882: real time   20.6308

 eigenvalue-minimisations  :    32
 total energy-change (2. order) :-0.2808951E+00  (-0.2808951E+00)
 number of electron       8.0000000 magnetization 
 augmentation part        0.1121035 magnetization 

 Broyden mixing:
  rms(total) = 0.14158E+01    rms(broyden)= 0.14158E+01
  rms(prec ) = 0.14308E+01
  weight for this iteration     100.00

 Free energy of the ion-electron system (eV)
  ---------------------------------------------------
  alpha Z        PSCENC =         0.00380616
  Ewald energy   TEWEN  =       151.89277050
  -Hartree energ DENC   =      -508.44242511
  -exchange      EXHF   =         0.00000000
  -V(xc)+E(xc)   XCENC  =        30.52746206
  PAW double counting   =       348.70817470     -349.92881487
  entropy T*S    EENTRO =        -0.00000000
  eigenvalues    EBANDS =      -146.48215643
  atomic energy  EATOM  =       457.35384856
  Solvation  Ediel_sol  =         0.00000000
  ---------------------------------------------------
  free energy    TOTEN  =       -16.36733442 eV

  energy without entropy =      -16.36733442  energy(sigma->0) =      -16.36733442


--------------------------------------------------------------------------------------------------------




--------------------------------------- Iteration      1(   6)  ---------------------------------------


    POTLOK:  cpu time   40.2973: real time   40.3715
    SETDIJ:  cpu time    0.0426: real time    0.0426
     EDDAV:  cpu time    9.4407: real time    9.4593
       DOS:  cpu time    0.0051: real time    0.0051
    CHARGE:  cpu time    4.0787: real time    4.0865
    MIXING:  cpu time    0.8948: real time    0.9026
    --------------------------------------------
      LOOP:  cpu time   54.7592: real time   54.8676

 eigenvalue-minimisations  :    16
 total energy-change (2. order) : 0.1910848E+01  (-0.9415306E+00)
 number of electron       8.0000000 magnetization 
 augmentation part        0.0651806 magnetization 

 Broyden mixing:
  rms(total) = 0.15395E+01    rms(broyden)= 0.15395E+01
  rms(prec ) = 0.15408E+01
  weight for this iteration     100.00

 eigenvalues of (default mixing * dielectric matrix)
  average eigenvalue GAMMA=   0.2416
  0.2416

 Free energy of the ion-electron system (eV)
  ---------------------------------------------------
  alpha Z        PSCENC =         0.00380616
  Ewald energy   TEWEN  =       151.89277050
  -Hartree energ DENC   =      -532.91153841
  -exchange      EXHF   =         0.00000000
  -V(xc)+E(xc)   XCENC  =        31.86170159
  PAW double counting   =       812.57694499     -814.12961195
  entropy T*S    EENTRO =        -0.00000000
  eigenvalues    EBANDS =      -121.10440767
  atomic energy  EATOM  =       457.35384856
  Solvation  Ediel_sol  =         0.00000000
  ---------------------------------------------------
  free energy    TOTEN  =       -14.45648622 eV

  energy without entropy =      -14.45648622  energy(sigma->0) =      -14.45648622


--------------------------------------------------------------------------------------------------------




--------------------------------------- Iteration      1(   7)  ---------------------------------------


    POTLOK:  cpu time   40.3210: real time   40.3689
    SETDIJ:  cpu time    0.0853: real time    0.0854
     EDDAV:  cpu time   15.3835: real time   15.4041
       DOS:  cpu time    0.0063: real time    0.0064
    CHARGE:  cpu time    4.1116: real time    4.1203
    MIXING:  cpu time    0.9738: real time    0.9766
    --------------------------------------------
      LOOP:  cpu time   60.8817: real time   60.9617

 eigenvalue-minimisations  :    32
 total energy-change (2. order) : 0.2108243E-01  (-0.2387999E-01)
 number of electron       8.0000000 magnetization 
 augmentation part        0.0648612 magnetization 

 Broyden mixing:
  rms(total) = 0.14483E+01    rms(broyden)= 0.14483E+01
  rms(prec ) = 0.14493E+01
  weight for this iteration     100.00

 eigenvalues of (default mixing * dielectric matrix)
  average eigenvalue GAMMA=   1.3485
  1.3485  1.3485

 Free energy of the ion-electron system (eV)
  ---------------------------------------------------
  alpha Z        PSCENC =         0.00380616
  Ewald energy   TEWEN  =       151.89277050
  -Hartree energ DENC   =      -534.20837024
  -exchange      EXHF   =         0.00000000
  -V(xc)+E(xc)   XCENC  =        31.93200231
  PAW double counting   =      1051.87585378    -1053.42368685
  entropy T*S    EENTRO =        -0.00000000
  eigenvalues    EBANDS =      -119.86162802
  atomic energy  EATOM  =       457.35384856
  Solvation  Ediel_sol  =         0.00000000
  ---------------------------------------------------
  free energy    TOTEN  =       -14.43540379 eV

  energy without entropy =      -14.43540379  energy(sigma->0) =      -14.43540379


--------------------------------------------------------------------------------------------------------




--------------------------------------- Iteration      1(   8)  ---------------------------------------


    POTLOK:  cpu time   40.2791: real time   40.3313
    SETDIJ:  cpu time    0.0927: real time    0.0928
     EDDAV:  cpu time   15.4095: real time   15.4362
       DOS:  cpu time    0.0071: real time    0.0071
    CHARGE:  cpu time    4.0646: real time    4.0694
    MIXING:  cpu time    0.9846: real time    0.9857
    --------------------------------------------
      LOOP:  cpu time   60.8377: real time   60.9224

 eigenvalue-minimisations  :    32
 total energy-change (2. order) : 0.1059862E+00  (-0.9650913E-02)
 number of electron       8.0000000 magnetization 
 augmentation part        0.0689669 magnetization 

 Broyden mixing:
  rms(total) = 0.22851E+00    rms(broyden)= 0.22851E+00
  rms(prec ) = 0.23058E+00
  weight for this iteration     100.00

 eigenvalues of (default mixing * dielectric matrix)
  average eigenvalue GAMMA=   1.3253
  2.1801  0.8979  0.8979

 Free energy of the ion-electron system (eV)
  ---------------------------------------------------
  alpha Z        PSCENC =         0.00380616
  Ewald energy   TEWEN  =       151.89277050
  -Hartree energ DENC   =      -537.42646464
  -exchange      EXHF   =         0.00000000
  -V(xc)+E(xc)   XCENC  =        32.12411351
  PAW double counting   =      3005.18843628    -3006.69440685
  entropy T*S    EENTRO =        -0.00000000
  eigenvalues    EBANDS =      -116.77152113
  atomic energy  EATOM  =       457.35384856
  Solvation  Ediel_sol  =         0.00000000
  ---------------------------------------------------
  free energy    TOTEN  =       -14.32941762 eV

  energy without entropy =      -14.32941762  energy(sigma->0) =      -14.32941762


--------------------------------------------------------------------------------------------------------




--------------------------------------- Iteration      1(   9)  ---------------------------------------


    POTLOK:  cpu time   40.4371: real time   40.4946
    SETDIJ:  cpu time    0.0658: real time    0.0659
     EDDAV:  cpu time   12.4781: real time   12.4956
       DOS:  cpu time    0.0037: real time    0.0037
    CHARGE:  cpu time    4.1246: real time    4.1294
    MIXING:  cpu time    1.0292: real time    1.0303
    --------------------------------------------
      LOOP:  cpu time   58.1385: real time   58.2195

 eigenvalue-minimisations  :    24
 total energy-change (2. order) : 0.4452858E-01  (-0.7047320E-02)
 number of electron       8.0000000 magnetization 
 augmentation part        0.0654225 magnetization 

 Broyden mixing:
  rms(total) = 0.29750E+00    rms(broyden)= 0.29750E+00
  rms(prec ) = 0.29784E+00
  weight for this iteration     100.00

 eigenvalues of (default mixing * dielectric matrix)
  average eigenvalue GAMMA=   1.5121
  1.9948  1.9948  1.0293  1.0293

 Free energy of the ion-electron system (eV)
  ---------------------------------------------------
  alpha Z        PSCENC =         0.00380616
  Ewald energy   TEWEN  =       151.89277050
  -Hartree energ DENC   =      -541.31016968
  -exchange      EXHF   =         0.00000000
  -V(xc)+E(xc)   XCENC  =        32.34698156
  PAW double counting   =      3718.56175907    -3720.07567928
  entropy T*S    EENTRO =        -0.00000000
  eigenvalues    EBANDS =      -113.05820594
  atomic energy  EATOM  =       457.35384856
  Solvation  Ediel_sol  =         0.00000000
  ---------------------------------------------------
  free energy    TOTEN  =       -14.28488904 eV

  energy without entropy =      -14.28488904  energy(sigma->0) =      -14.28488904


--------------------------------------------------------------------------------------------------------




--------------------------------------- Iteration      1(  10)  ---------------------------------------


    POTLOK:  cpu time   40.4937: real time   40.5368
    SETDIJ:  cpu time    0.0464: real time    0.0464
     EDDAV:  cpu time   12.4744: real time   12.4908
       DOS:  cpu time    0.0013: real time    0.0012
    CHARGE:  cpu time    4.0948: real time    4.0995
    MIXING:  cpu time    1.0457: real time    1.0468
    --------------------------------------------
      LOOP:  cpu time   58.1561: real time   58.2214

 eigenvalue-minimisations  :    24
 total energy-change (2. order) : 0.5282643E-02  (-0.6357069E-03)
 number of electron       8.0000000 magnetization 
 augmentation part        0.0647550 magnetization 

 Broyden mixing:
  rms(total) = 0.58430E-01    rms(broyden)= 0.58430E-01
  rms(prec ) = 0.59073E-01
  weight for this iteration     100.00

 eigenvalues of (default mixing * dielectric matrix)
  average eigenvalue GAMMA=   1.8182
  3.8955  2.3273  0.9380  0.9380  0.9921

 Free energy of the ion-electron system (eV)
  ---------------------------------------------------
  alpha Z        PSCENC =         0.00380616
  Ewald energy   TEWEN  =       151.89277050
  -Hartree energ DENC   =      -542.53159984
  -exchange      EXHF   =         0.00000000
  -V(xc)+E(xc)   XCENC  =        32.39178264
  PAW double counting   =      3325.18214494    -3326.68545061
  entropy T*S    EENTRO =        -0.00000000
  eigenvalues    EBANDS =      -111.88690875
  atomic energy  EATOM  =       457.35384856
  Solvation  Ediel_sol  =         0.00000000
  ---------------------------------------------------
  free energy    TOTEN  =       -14.27960640 eV

  energy without entropy =      -14.27960640  energy(sigma->0) =      -14.27960640


--------------------------------------------------------------------------------------------------------




--------------------------------------- Iteration      1(  11)  ---------------------------------------


    POTLOK:  cpu time   40.5131: real time   40.5562
    SETDIJ:  cpu time    0.0621: real time    0.0621
     EDDAV:  cpu time    9.4487: real time    9.4668
       DOS:  cpu time    0.0024: real time    0.0024
    CHARGE:  cpu time    4.0909: real time    4.0956
    MIXING:  cpu time    1.0925: real time    1.0937
    --------------------------------------------
      LOOP:  cpu time   55.2097: real time   55.2769

 eigenvalue-minimisations  :    16
 total energy-change (2. order) :-0.1495219E-04  (-0.1213250E-02)
 number of electron       8.0000000 magnetization 
 augmentation part        0.0634170 magnetization 

 Broyden mixing:
  rms(total) = 0.14548E+00    rms(broyden)= 0.14548E+00
  rms(prec ) = 0.14557E+00
  weight for this iteration     100.00

 eigenvalues of (default mixing * dielectric matrix)
  average eigenvalue GAMMA=   1.6673
  3.1975  2.4204  1.0517  1.0517  1.2796  1.0032

 Free energy of the ion-electron system (eV)
  ---------------------------------------------------
  alpha Z        PSCENC =         0.00380616
  Ewald energy   TEWEN  =       151.89277050
  -Hartree energ DENC   =      -544.31132636
  -exchange      EXHF   =         0.00000000
  -V(xc)+E(xc)   XCENC  =        32.46220191
  PAW double counting   =      2995.78165798    -2997.27936489
  entropy T*S    EENTRO =        -0.00000000
  eigenvalues    EBANDS =      -110.18321521
  atomic energy  EATOM  =       457.35384856
  Solvation  Ediel_sol  =         0.00000000
  ---------------------------------------------------
  free energy    TOTEN  =       -14.27962135 eV

  energy without entropy =      -14.27962135  energy(sigma->0) =      -14.27962135


--------------------------------------------------------------------------------------------------------




--------------------------------------- Iteration      1(  12)  ---------------------------------------


    POTLOK:  cpu time   40.4947: real time   40.5450
    SETDIJ:  cpu time    0.1065: real time    0.1065
     EDDAV:  cpu time   15.3402: real time   15.3644
       DOS:  cpu time    0.0045: real time    0.0045
    CHARGE:  cpu time    4.1443: real time    4.1490
    MIXING:  cpu time    1.1326: real time    1.1338
    --------------------------------------------
      LOOP:  cpu time   61.2227: real time   61.3033

 eigenvalue-minimisations  :    32
 total energy-change (2. order) :-0.2761935E-02  (-0.1363769E-03)
 number of electron       8.0000000 magnetization 
 augmentation part        0.0639119 magnetization 

 Broyden mixing:
  rms(total) = 0.55593E-01    rms(broyden)= 0.55593E-01
  rms(prec ) = 0.55725E-01
  weight for this iteration     100.00

 eigenvalues of (default mixing * dielectric matrix)
  average eigenvalue GAMMA=   1.4768
  3.0202  2.5585  1.0879  1.0879  1.0939  1.0939  0.3951

 Free energy of the ion-electron system (eV)
  ---------------------------------------------------
  alpha Z        PSCENC =         0.00380616
  Ewald energy   TEWEN  =       151.89277050
  -Hartree energ DENC   =      -544.05922919
  -exchange      EXHF   =         0.00000000
  -V(xc)+E(xc)   XCENC  =        32.44614332
  PAW double counting   =      3118.92730041    -3120.42747032
  entropy T*S    EENTRO =        -0.00000000
  eigenvalues    EBANDS =      -110.41955273
  atomic energy  EATOM  =       457.35384856
  Solvation  Ediel_sol  =         0.00000000
  ---------------------------------------------------
  free energy    TOTEN  =       -14.28238328 eV

  energy without entropy =      -14.28238328  energy(sigma->0) =      -14.28238328


--------------------------------------------------------------------------------------------------------




--------------------------------------- Iteration      1(  13)  ---------------------------------------


    POTLOK:  cpu time   40.5739: real time   40.6229
    SETDIJ:  cpu time    0.0494: real time    0.0494
     EDDAV:  cpu time   15.3734: real time   15.3932
       DOS:  cpu time    0.0070: real time    0.0070
    CHARGE:  cpu time    4.1219: real time    4.1265
    MIXING:  cpu time    1.0691: real time    1.0703
    --------------------------------------------
      LOOP:  cpu time   61.1947: real time   61.2694

 eigenvalue-minimisations  :    32
 total energy-change (2. order) :-0.1069431E-02  (-0.9097081E-05)
 number of electron       8.0000000 magnetization 
 augmentation part        0.0639885 magnetization 

 Broyden mixing:
  rms(total) = 0.42363E-01    rms(broyden)= 0.42363E-01
  rms(prec ) = 0.42506E-01
  weight for this iteration     100.00

 eigenvalues of (default mixing * dielectric matrix)
  average eigenvalue GAMMA=   1.7126
  3.2210  3.2210  2.3864  1.0224  1.0224  0.9784  0.9245  0.9245

 Free energy of the ion-electron system (eV)
  ---------------------------------------------------
  alpha Z        PSCENC =         0.00380616
  Ewald energy   TEWEN  =       151.89277050
  -Hartree energ DENC   =      -543.99777062
  -exchange      EXHF   =         0.00000000
  -V(xc)+E(xc)   XCENC  =        32.44078400
  PAW double counting   =      3136.40338979    -3137.90404226
  entropy T*S    EENTRO =        -0.00000000
  eigenvalues    EBANDS =      -110.47623885
  atomic energy  EATOM  =       457.35384856
  Solvation  Ediel_sol  =         0.00000000
  ---------------------------------------------------
  free energy    TOTEN  =       -14.28345272 eV

  energy without entropy =      -14.28345272  energy(sigma->0) =      -14.28345272


--------------------------------------------------------------------------------------------------------




--------------------------------------- Iteration      1(  14)  ---------------------------------------


    POTLOK:  cpu time   40.6033: real time   40.6464
    SETDIJ:  cpu time    0.0504: real time    0.0505
     EDDAV:  cpu time   12.3870: real time   12.4031
       DOS:  cpu time    0.0109: real time    0.0109
    CHARGE:  cpu time    4.1088: real time    4.1148
    MIXING:  cpu time    1.1747: real time    1.1782
    --------------------------------------------
      LOOP:  cpu time   58.3352: real time   58.4039

 eigenvalue-minimisations  :    24
 total energy-change (2. order) :-0.5120130E-02  (-0.1231258E-03)
 number of electron       8.0000000 magnetization 
 augmentation part        0.0642496 magnetization 

 Broyden mixing:
  rms(total) = 0.33020E-01    rms(broyden)= 0.33020E-01
  rms(prec ) = 0.33073E-01
  weight for this iteration     100.00

 eigenvalues of (default mixing * dielectric matrix)
  average eigenvalue GAMMA=   1.8052
  4.5903  3.0782  2.4639  1.1175  1.1175  1.0841  1.0841  0.8555  0.8555

 Free energy of the ion-electron system (eV)
  ---------------------------------------------------
  alpha Z        PSCENC =         0.00380616
  Ewald energy   TEWEN  =       151.89277050
  -Hartree energ DENC   =      -544.04506958
  -exchange      EXHF   =         0.00000000
  -V(xc)+E(xc)   XCENC  =        32.43029708
  PAW double counting   =      3236.64464718    -3238.14716480
  entropy T*S    EENTRO =        -0.00000000
  eigenvalues    EBANDS =      -110.42170795
  atomic energy  EATOM  =       457.35384856
  Solvation  Ediel_sol  =         0.00000000
  ---------------------------------------------------
  free energy    TOTEN  =       -14.28857285 eV

  energy without entropy =      -14.28857285  energy(sigma->0) =      -14.28857285


--------------------------------------------------------------------------------------------------------




--------------------------------------- Iteration      1(  15)  ---------------------------------------


    POTLOK:  cpu time   40.6840: real time   40.7303
    SETDIJ:  cpu time    0.0757: real time    0.0757
     EDDAV:  cpu time   15.4322: real time   15.4589
       DOS:  cpu time    0.0105: real time    0.0105
    CHARGE:  cpu time    4.1074: real time    4.1126
    MIXING:  cpu time    1.2660: real time    1.2674
    --------------------------------------------
      LOOP:  cpu time   61.5758: real time   61.6554

 eigenvalue-minimisations  :    32
 total energy-change (2. order) :-0.1371528E-02  (-0.1464600E-04)
 number of electron       8.0000000 magnetization 
 augmentation part        0.0641592 magnetization 

 Broyden mixing:
  rms(total) = 0.26700E-01    rms(broyden)= 0.26700E-01
  rms(prec ) = 0.26731E-01
  weight for this iteration     100.00

 eigenvalues of (default mixing * dielectric matrix)
  average eigenvalue GAMMA=   1.9367
  5.6974  2.6598  2.6598  2.4051  1.1071  1.1071  0.9639  0.9639  0.9859  0.8169

 Free energy of the ion-electron system (eV)
  ---------------------------------------------------
  alpha Z        PSCENC =         0.00380616
  Ewald energy   TEWEN  =       151.89277050
  -Hartree energ DENC   =      -544.13548205
  -exchange      EXHF   =         0.00000000
  -V(xc)+E(xc)   XCENC  =        32.43028334
  PAW double counting   =      3228.33497148    -3229.83715189
  entropy T*S    EENTRO =        -0.00000000
  eigenvalues    EBANDS =      -110.33299047
  atomic energy  EATOM  =       457.35384856
  Solvation  Ediel_sol  =         0.00000000
  ---------------------------------------------------
  free energy    TOTEN  =       -14.28994437 eV

  energy without entropy =      -14.28994437  energy(sigma->0) =      -14.28994437


--------------------------------------------------------------------------------------------------------




--------------------------------------- Iteration      1(  16)  ---------------------------------------


    POTLOK:  cpu time   40.5513: real time   40.5937
    SETDIJ:  cpu time    0.0550: real time    0.0551
     EDDAV:  cpu time   15.3528: real time   15.3727
       DOS:  cpu time    0.0036: real time    0.0036
    CHARGE:  cpu time    4.0746: real time    4.0795
    MIXING:  cpu time    1.3209: real time    1.3225
    --------------------------------------------
      LOOP:  cpu time   61.3583: real time   61.4269

 eigenvalue-minimisations  :    32
 total energy-change (2. order) :-0.1637009E-02  (-0.2984310E-04)
 number of electron       8.0000000 magnetization 
 augmentation part        0.0639802 magnetization 

 Broyden mixing:
  rms(total) = 0.10822E-01    rms(broyden)= 0.10822E-01
  rms(prec ) = 0.10837E-01
  weight for this iteration     100.00

 eigenvalues of (default mixing * dielectric matrix)
  average eigenvalue GAMMA=   2.0324
  6.7924  3.2553  2.3192  2.3192  1.8619  1.0329  1.0329  0.9235  0.9235  1.0632
  0.8318

 Free energy of the ion-electron system (eV)
  ---------------------------------------------------
  alpha Z        PSCENC =         0.00380616
  Ewald energy   TEWEN  =       151.89277050
  -Hartree energ DENC   =      -544.28952037
  -exchange      EXHF   =         0.00000000
  -V(xc)+E(xc)   XCENC  =        32.43268757
  PAW double counting   =      3179.29683433    -3180.79704007
  entropy T*S    EENTRO =        -0.00000000
  eigenvalues    EBANDS =      -110.18496806
  atomic energy  EATOM  =       457.35384856
  Solvation  Ediel_sol  =         0.00000000
  ---------------------------------------------------
  free energy    TOTEN  =       -14.29158138 eV

  energy without entropy =      -14.29158138  energy(sigma->0) =      -14.29158138


--------------------------------------------------------------------------------------------------------




--------------------------------------- Iteration      1(  17)  ---------------------------------------


    POTLOK:  cpu time   40.5828: real time   40.6273
    SETDIJ:  cpu time    0.0612: real time    0.0613
     EDDAV:  cpu time   15.4313: real time   15.4575
       DOS:  cpu time    0.0185: real time    0.0185
    CHARGE:  cpu time    4.1158: real time    4.1239
    MIXING:  cpu time    1.3249: real time    1.3265
    --------------------------------------------
      LOOP:  cpu time   61.5347: real time   61.6150

 eigenvalue-minimisations  :    32
 total energy-change (2. order) :-0.3828889E-03  (-0.1457626E-05)
 number of electron       8.0000000 magnetization 
 augmentation part        0.0640056 magnetization 

 Broyden mixing:
  rms(total) = 0.39000E-02    rms(broyden)= 0.39000E-02
  rms(prec ) = 0.39211E-02
  weight for this iteration     100.00

 eigenvalues of (default mixing * dielectric matrix)
  average eigenvalue GAMMA=   2.1106
  7.4902  3.7074  2.7693  2.5247  1.5760  1.5760  0.9913  0.9913  0.9681  0.9681
  0.8825  0.8825

 Free energy of the ion-electron system (eV)
  ---------------------------------------------------
  alpha Z        PSCENC =         0.00380616
  Ewald energy   TEWEN  =       151.89277050
  -Hartree energ DENC   =      -544.28448364
  -exchange      EXHF   =         0.00000000
  -V(xc)+E(xc)   XCENC  =        32.43166886
  PAW double counting   =      3187.57061895    -3189.07108791
  entropy T*S    EENTRO =        -0.00000000
  eigenvalues    EBANDS =      -110.18910577
  atomic energy  EATOM  =       457.35384856
  Solvation  Ediel_sol  =         0.00000000
  ---------------------------------------------------
  free energy    TOTEN  =       -14.29196427 eV

  energy without entropy =      -14.29196427  energy(sigma->0) =      -14.29196427


--------------------------------------------------------------------------------------------------------




--------------------------------------- Iteration      1(  18)  ---------------------------------------


    POTLOK:  cpu time   40.5665: real time   40.6099
    SETDIJ:  cpu time    0.0498: real time    0.0498
     EDDAV:  cpu time    9.5350: real time    9.5547
       DOS:  cpu time    0.0032: real time    0.0032
    CHARGE:  cpu time    4.0921: real time    4.0969
    MIXING:  cpu time    1.3198: real time    1.3214
    --------------------------------------------
      LOOP:  cpu time   55.5664: real time   55.6360

 eigenvalue-minimisations  :    16
 total energy-change (2. order) :-0.5223630E-03  (-0.2037132E-05)
 number of electron       8.0000000 magnetization 
 augmentation part        0.0639990 magnetization 

 Broyden mixing:
  rms(total) = 0.26803E-02    rms(broyden)= 0.26803E-02
  rms(prec ) = 0.26893E-02
  weight for this iteration     100.00

 eigenvalues of (default mixing * dielectric matrix)
  average eigenvalue GAMMA=   2.1643
  7.9330  4.4015  2.7813  2.3546  2.3546  1.5263  1.1155  1.0141  1.0141  0.8987
  0.8987  0.9448  0.8987

 Free energy of the ion-electron system (eV)
  ---------------------------------------------------
  alpha Z        PSCENC =         0.00380616
  Ewald energy   TEWEN  =       151.89277050
  -Hartree energ DENC   =      -544.27872039
  -exchange      EXHF   =         0.00000000
  -V(xc)+E(xc)   XCENC  =        32.43076270
  PAW double counting   =      3189.74830646    -3191.24893610
  entropy T*S    EENTRO =        -0.00000000
  eigenvalues    EBANDS =      -110.19432451
  atomic energy  EATOM  =       457.35384856
  Solvation  Ediel_sol  =         0.00000000
  ---------------------------------------------------
  free energy    TOTEN  =       -14.29248664 eV

  energy without entropy =      -14.29248664  energy(sigma->0) =      -14.29248664


--------------------------------------------------------------------------------------------------------




--------------------------------------- Iteration      1(  19)  ---------------------------------------


    POTLOK:  cpu time   40.5232: real time   40.5724
    SETDIJ:  cpu time    0.0544: real time    0.0544
     EDDAV:  cpu time   15.4115: real time   15.4340
       DOS:  cpu time    0.0016: real time    0.0016
    CHARGE:  cpu time    4.1117: real time    4.1163
    MIXING:  cpu time    1.4439: real time    1.4457
    --------------------------------------------
      LOOP:  cpu time   61.5463: real time   61.6244

 eigenvalue-minimisations  :    32
 total energy-change (2. order) :-0.2522488E-03  (-0.1117574E-05)
 number of electron       8.0000000 magnetization 
 augmentation part        0.0640160 magnetization 

 Broyden mixing:
  rms(total) = 0.19915E-03    rms(broyden)= 0.19915E-03
  rms(prec ) = 0.22568E-03
  weight for this iteration     100.00

 eigenvalues of (default mixing * dielectric matrix)
  average eigenvalue GAMMA=   2.2232
  8.6529  4.8874  2.7475  2.4079  2.4079  2.1470  1.1964  0.9985  0.9985  1.0241
  1.0241  0.8804  0.8763  0.8763

 Free energy of the ion-electron system (eV)
  ---------------------------------------------------
  alpha Z        PSCENC =         0.00380616
  Ewald energy   TEWEN  =       151.89277050
  -Hartree energ DENC   =      -544.26651809
  -exchange      EXHF   =         0.00000000
  -V(xc)+E(xc)   XCENC  =        32.42992813
  PAW double counting   =      3192.61558157    -3194.11631140
  entropy T*S    EENTRO =        -0.00000000
  eigenvalues    EBANDS =      -110.20584431
  atomic energy  EATOM  =       457.35384856
  Solvation  Ediel_sol  =         0.00000000
  ---------------------------------------------------
  free energy    TOTEN  =       -14.29273888 eV

  energy without entropy =      -14.29273888  energy(sigma->0) =      -14.29273888


--------------------------------------------------------------------------------------------------------




--------------------------------------- Iteration      1(  20)  ---------------------------------------


    POTLOK:  cpu time   40.5121: real time   40.5597
    SETDIJ:  cpu time    0.0612: real time    0.0612
     EDDAV:  cpu time    9.4679: real time    9.4894
       DOS:  cpu time    0.0021: real time    0.0021
    CHARGE:  cpu time    4.0797: real time    4.0846
    MIXING:  cpu time    1.4667: real time    1.4684
    --------------------------------------------
      LOOP:  cpu time   55.5897: real time   55.6654

 eigenvalue-minimisations  :    16
 total energy-change (2. order) :-0.1110535E-03  (-0.1411828E-06)
 number of electron       8.0000000 magnetization 
 augmentation part        0.0640195 magnetization 

 Broyden mixing:
  rms(total) = 0.42580E-03    rms(broyden)= 0.42580E-03
  rms(prec ) = 0.42992E-03
  weight for this iteration     100.00

 eigenvalues of (default mixing * dielectric matrix)
  average eigenvalue GAMMA=   2.3168
  8.9874  5.5966  3.2346  2.8841  2.5719  1.8800  1.8800  1.0212  1.0212  0.9013
  0.9013  1.0478  0.9409  0.9409  0.9423

 Free energy of the ion-electron system (eV)
  ---------------------------------------------------
  alpha Z        PSCENC =         0.00380616
  Ewald energy   TEWEN  =       151.89277050
  -Hartree energ DENC   =      -544.26102039
  -exchange      EXHF   =         0.00000000
  -V(xc)+E(xc)   XCENC  =        32.42947517
  PAW double counting   =      3192.78041565    -3194.28117969
  entropy T*S    EENTRO =        -0.00000000
  eigenvalues    EBANDS =      -110.21096591
  atomic energy  EATOM  =       457.35384856
  Solvation  Ediel_sol  =         0.00000000
  ---------------------------------------------------
  free energy    TOTEN  =       -14.29284994 eV

  energy without entropy =      -14.29284994  energy(sigma->0) =      -14.29284994


--------------------------------------------------------------------------------------------------------




--------------------------------------- Iteration      1(  21)  ---------------------------------------


    POTLOK:  cpu time   40.4239: real time   40.4670
    SETDIJ:  cpu time    0.0548: real time    0.0548
     EDDAV:  cpu time   15.3617: real time   15.3817
       DOS:  cpu time    0.0051: real time    0.0051
    CHARGE:  cpu time    4.1048: real time    4.1097
    MIXING:  cpu time    1.5443: real time    1.5462
    --------------------------------------------
      LOOP:  cpu time   61.4947: real time   61.5645

 eigenvalue-minimisations  :    32
 total energy-change (2. order) :-0.5604962E-04  (-0.6548561E-07)
 number of electron       8.0000000 magnetization 
 augmentation part        0.0640209 magnetization 

 Broyden mixing:
  rms(total) = 0.59778E-03    rms(broyden)= 0.59778E-03
  rms(prec ) = 0.59882E-03
  weight for this iteration     100.00

 eigenvalues of (default mixing * dielectric matrix)
  average eigenvalue GAMMA=   2.3483
  9.1959  5.9533  3.8043  2.6452  2.4802  2.4802  1.9333  1.2865  1.0100  1.0100
  0.8984  0.8984  1.1248  1.0297  0.9114  0.9114

 Free energy of the ion-electron system (eV)
  ---------------------------------------------------
  alpha Z        PSCENC =         0.00380616
  Ewald energy   TEWEN  =       151.89277050
  -Hartree energ DENC   =      -544.26156275
  -exchange      EXHF   =         0.00000000
  -V(xc)+E(xc)   XCENC  =        32.42943106
  PAW double counting   =      3193.17829879    -3194.67906637
  entropy T*S    EENTRO =        -0.00000000
  eigenvalues    EBANDS =      -110.21043194
  atomic energy  EATOM  =       457.35384856
  Solvation  Ediel_sol  =         0.00000000
  ---------------------------------------------------
  free energy    TOTEN  =       -14.29290599 eV

  energy without entropy =      -14.29290599  energy(sigma->0) =      -14.29290599


--------------------------------------------------------------------------------------------------------




--------------------------------------- Iteration      1(  22)  ---------------------------------------


    POTLOK:  cpu time   40.4319: real time   40.4751
    SETDIJ:  cpu time    0.0641: real time    0.0642
     EDDAV:  cpu time    9.4901: real time    9.5020
       DOS:  cpu time    0.0051: real time    0.0051
    CHARGE:  cpu time    4.0768: real time    4.0816
    MIXING:  cpu time    1.6225: real time    1.6244
    --------------------------------------------
      LOOP:  cpu time   55.6905: real time   55.7524

 eigenvalue-minimisations  :    16
 total energy-change (2. order) :-0.2445757E-04  (-0.2877469E-07)
 number of electron       8.0000000 magnetization 
 augmentation part        0.0640140 magnetization 

 Broyden mixing:
  rms(total) = 0.22523E-03    rms(broyden)= 0.22523E-03
  rms(prec ) = 0.22603E-03
  weight for this iteration     100.00

 eigenvalues of (default mixing * dielectric matrix)
  average eigenvalue GAMMA=   2.3618
  9.4442  6.2144  4.2763  2.7707  2.5368  2.5368  2.0558  1.5913  1.0877  1.0877
  1.0033  1.0033  0.8986  0.8986  0.8961  0.9250  0.9250

 Free energy of the ion-electron system (eV)
  ---------------------------------------------------
  alpha Z        PSCENC =         0.00380616
  Ewald energy   TEWEN  =       151.89277050
  -Hartree energ DENC   =      -544.26579034
  -exchange      EXHF   =         0.00000000
  -V(xc)+E(xc)   XCENC  =        32.42959133
  PAW double counting   =      3192.29315907    -3193.79390495
  entropy T*S    EENTRO =        -0.00000000
  eigenvalues    EBANDS =      -110.20641077
  atomic energy  EATOM  =       457.35384856
  Solvation  Ediel_sol  =         0.00000000
  ---------------------------------------------------
  free energy    TOTEN  =       -14.29293044 eV

  energy without entropy =      -14.29293044  energy(sigma->0) =      -14.29293044


--------------------------------------------------------------------------------------------------------




--------------------------------------- Iteration      1(  23)  ---------------------------------------


    POTLOK:  cpu time   40.3502: real time   40.3931
    SETDIJ:  cpu time    0.0597: real time    0.0597
     EDDAV:  cpu time   15.3231: real time   15.3428
       DOS:  cpu time    0.0035: real time    0.0035
    CHARGE:  cpu time    4.0669: real time    4.0718
    MIXING:  cpu time    1.6210: real time    1.6231
    --------------------------------------------
      LOOP:  cpu time   61.4243: real time   61.4941

 eigenvalue-minimisations  :    32
 total energy-change (2. order) :-0.1203700E-04  (-0.6137247E-08)
 number of electron       8.0000000 magnetization 
 augmentation part        0.0640165 magnetization 

 Broyden mixing:
  rms(total) = 0.75794E-04    rms(broyden)= 0.75794E-04
  rms(prec ) = 0.76397E-04
  weight for this iteration     100.00

 eigenvalues of (default mixing * dielectric matrix)
  average eigenvalue GAMMA=   2.4317
  9.5915  6.5879  4.8863  3.0321  3.0321  2.2998  2.2998  2.1462  1.2526  1.0043
  1.0043  1.0675  1.0675  0.8990  0.8990  0.9261  0.8874  0.8874

 Free energy of the ion-electron system (eV)
  ---------------------------------------------------
  alpha Z        PSCENC =         0.00380616
  Ewald energy   TEWEN  =       151.89277050
  -Hartree energ DENC   =      -544.26519939
  -exchange      EXHF   =         0.00000000
  -V(xc)+E(xc)   XCENC  =        32.42953398
  PAW double counting   =      3192.48487483    -3193.98560771
  entropy T*S    EENTRO =        -0.00000000
  eigenvalues    EBANDS =      -110.20696941
  atomic energy  EATOM  =       457.35384856
  Solvation  Ediel_sol  =         0.00000000
  ---------------------------------------------------
  free energy    TOTEN  =       -14.29294248 eV

  energy without entropy =      -14.29294248  energy(sigma->0) =      -14.29294248


--------------------------------------------------------------------------------------------------------




--------------------------------------- Iteration      1(  24)  ---------------------------------------


    POTLOK:  cpu time   40.3431: real time   40.3928
    SETDIJ:  cpu time    0.0751: real time    0.0751
     EDDAV:  cpu time    9.4781: real time    9.4900
       DOS:  cpu time    0.0024: real time    0.0024
    CHARGE:  cpu time    4.0682: real time    4.0731
    MIXING:  cpu time    1.7232: real time    1.7254
    --------------------------------------------
      LOOP:  cpu time   55.6902: real time   55.7588

 eigenvalue-minimisations  :    16
 total energy-change (2. order) :-0.6318124E-05  (-0.1617400E-08)
 number of electron       8.0000000 magnetization 
 augmentation part        0.0640170 magnetization 

 Broyden mixing:
  rms(total) = 0.49747E-04    rms(broyden)= 0.49747E-04
  rms(prec ) = 0.50058E-04
  weight for this iteration     100.00

 eigenvalues of (default mixing * dielectric matrix)
  average eigenvalue GAMMA=   2.4186
  9.6171  6.9428  5.0298  3.5866  2.4912  2.4912  2.2685  2.2685  1.5439  1.0052
  1.0052  0.8979  0.8979  1.0570  1.0570  0.9544  0.9544  0.9932  0.8917

 Free energy of the ion-electron system (eV)
  ---------------------------------------------------
  alpha Z        PSCENC =         0.00380616
  Ewald energy   TEWEN  =       151.89277050
  -Hartree energ DENC   =      -544.26524793
  -exchange      EXHF   =         0.00000000
  -V(xc)+E(xc)   XCENC  =        32.42953052
  PAW double counting   =      3192.58318410    -3194.08392268
  entropy T*S    EENTRO =        -0.00000000
  eigenvalues    EBANDS =      -110.20691802
  atomic energy  EATOM  =       457.35384856
  Solvation  Ediel_sol  =         0.00000000
  ---------------------------------------------------
  free energy    TOTEN  =       -14.29294880 eV

  energy without entropy =      -14.29294880  energy(sigma->0) =      -14.29294880


--------------------------------------------------------------------------------------------------------




--------------------------------------- Iteration      1(  25)  ---------------------------------------


    POTLOK:  cpu time   40.3495: real time   40.3969
    SETDIJ:  cpu time    0.0390: real time    0.0390
     EDDAV:  cpu time   15.3268: real time   15.3623
       DOS:  cpu time    0.0131: real time    0.0131
    CHARGE:  cpu time    4.1483: real time    4.1531
    MIXING:  cpu time    1.7358: real time    1.7381
    --------------------------------------------
      LOOP:  cpu time   61.6124: real time   61.7024

 eigenvalue-minimisations  :    32
 total energy-change (2. order) :-0.2812273E-05  (-0.1311371E-08)
 number of electron       8.0000000 magnetization 
 augmentation part        0.0640161 magnetization 

 Broyden mixing:
  rms(total) = 0.33577E-04    rms(broyden)= 0.33577E-04
  rms(prec ) = 0.33765E-04
  weight for this iteration     100.00

 eigenvalues of (default mixing * dielectric matrix)
  average eigenvalue GAMMA=   2.4228
  9.6753  7.1273  5.0687  3.8476  2.6840  2.6840  2.5686  2.0068  2.0068  1.1125
  1.1125  1.0025  1.0025  0.8966  0.8966  1.0131  1.0131  0.8932  0.9224  0.9224

 Free energy of the ion-electron system (eV)
  ---------------------------------------------------
  alpha Z        PSCENC =         0.00380616
  Ewald energy   TEWEN  =       151.89277050
  -Hartree energ DENC   =      -544.26555412
  -exchange      EXHF   =         0.00000000
  -V(xc)+E(xc)   XCENC  =        32.42954560
  PAW double counting   =      3192.48432288    -3193.98506294
  entropy T*S    EENTRO =        -0.00000000
  eigenvalues    EBANDS =      -110.20662825
  atomic energy  EATOM  =       457.35384856
  Solvation  Ediel_sol  =         0.00000000
  ---------------------------------------------------
  free energy    TOTEN  =       -14.29295161 eV

  energy without entropy =      -14.29295161  energy(sigma->0) =      -14.29295161


--------------------------------------------------------------------------------------------------------




--------------------------------------- Iteration      1(  26)  ---------------------------------------


    POTLOK:  cpu time   40.3799: real time   40.4228
    SETDIJ:  cpu time    0.0440: real time    0.0440
     EDDAV:  cpu time    9.4204: real time    9.4349
       DOS:  cpu time    0.0036: real time    0.0036
    CHARGE:  cpu time    4.0757: real time    4.0806
    MIXING:  cpu time    1.8064: real time    1.8087
    --------------------------------------------
      LOOP:  cpu time   55.7300: real time   55.7946

 eigenvalue-minimisations  :    16
 total energy-change (2. order) :-0.1520938E-05  (-0.6173977E-09)
 number of electron       8.0000000 magnetization 
 augmentation part        0.0640165 magnetization 

 Broyden mixing:
  rms(total) = 0.61101E-05    rms(broyden)= 0.61101E-05
  rms(prec ) = 0.63375E-05
  weight for this iteration     100.00

 eigenvalues of (default mixing * dielectric matrix)
  average eigenvalue GAMMA=   2.4895
  9.7285  7.5573  5.4987  4.4995  2.9651  2.9651  2.4836  2.2067  2.2067  1.5095
  1.0037  1.0037  0.8966  0.8966  1.0631  1.0631  1.0177  1.0177  0.9094  0.8941
  0.8941

 Free energy of the ion-electron system (eV)
  ---------------------------------------------------
  alpha Z        PSCENC =         0.00380616
  Ewald energy   TEWEN  =       151.89277050
  -Hartree energ DENC   =      -544.26530813
  -exchange      EXHF   =         0.00000000
  -V(xc)+E(xc)   XCENC  =        32.42953187
  PAW double counting   =      3192.50721545    -3194.00795669
  entropy T*S    EENTRO =        -0.00000000
  eigenvalues    EBANDS =      -110.20686085
  atomic energy  EATOM  =       457.35384856
  Solvation  Ediel_sol  =         0.00000000
  ---------------------------------------------------
  free energy    TOTEN  =       -14.29295313 eV

  energy without entropy =      -14.29295313  energy(sigma->0) =      -14.29295313


--------------------------------------------------------------------------------------------------------




--------------------------------------- Iteration      1(  27)  ---------------------------------------


    POTLOK:  cpu time   40.3579: real time   40.4004
    SETDIJ:  cpu time    0.1015: real time    0.1015
     EDDAV:  cpu time    9.4868: real time    9.4989
       DOS:  cpu time    0.0015: real time    0.0015
    CHARGE:  cpu time    4.1161: real time    4.1207
    MIXING:  cpu time    1.8577: real time    1.8602
    --------------------------------------------
      LOOP:  cpu time   55.9216: real time   55.9832

 eigenvalue-minimisations  :    16
 total energy-change (2. order) :-0.6997149E-06  (-0.4106635E-09)
 number of electron       8.0000000 magnetization 
 augmentation part        0.0640167 magnetization 

 Broyden mixing:
  rms(total) = 0.14098E-04    rms(broyden)= 0.14098E-04
  rms(prec ) = 0.14139E-04
  weight for this iteration     100.00

 eigenvalues of (default mixing * dielectric matrix)
  average eigenvalue GAMMA=   2.4475
  9.7511  7.6255  5.7037  4.4229  3.2647  2.5291  2.5291  2.3487  2.1176  1.7544
  1.0686  1.0686  0.9992  0.9992  0.8966  0.8966  1.0975  1.0351  1.0351  0.8901
  0.9060  0.9060

 Free energy of the ion-electron system (eV)
  ---------------------------------------------------
  alpha Z        PSCENC =         0.00380616
  Ewald energy   TEWEN  =       151.89277050
  -Hartree energ DENC   =      -544.26521196
  -exchange      EXHF   =         0.00000000
  -V(xc)+E(xc)   XCENC  =        32.42952658
  PAW double counting   =      3192.53907543    -3194.03981717
  entropy T*S    EENTRO =        -0.00000000
  eigenvalues    EBANDS =      -110.20695194
  atomic energy  EATOM  =       457.35384856
  Solvation  Ediel_sol  =         0.00000000
  ---------------------------------------------------
  free energy    TOTEN  =       -14.29295383 eV

  energy without entropy =      -14.29295383  energy(sigma->0) =      -14.29295383


--------------------------------------------------------------------------------------------------------




--------------------------------------- Iteration      1(  28)  ---------------------------------------


    POTLOK:  cpu time   40.3836: real time   40.4259
    SETDIJ:  cpu time    0.0561: real time    0.0561
     EDDAV:  cpu time   15.3825: real time   15.4021
       DOS:  cpu time    0.0174: real time    0.0174
    CHARGE:  cpu time    4.1279: real time    4.1325
    MIXING:  cpu time    2.0084: real time    2.0109
    --------------------------------------------
      LOOP:  cpu time   61.9759: real time   62.0450

 eigenvalue-minimisations  :    32
 total energy-change (2. order) :-0.4237594E-06  (-0.3148344E-09)
 number of electron       8.0000000 magnetization 
 augmentation part        0.0640165 magnetization 

 Broyden mixing:
  rms(total) = 0.84951E-05    rms(broyden)= 0.84951E-05
  rms(prec ) = 0.85092E-05
  weight for this iteration     100.00

 eigenvalues of (default mixing * dielectric matrix)
  average eigenvalue GAMMA=   2.4686
  9.7922  7.7712  5.9569  4.5157  3.4786  2.6992  2.6992  2.5661  2.0800  2.0800
  1.4264  1.1826  1.0615  1.0615  0.9997  0.9997  0.8966  0.8966  0.9542  0.9542
  0.9017  0.9017  0.9017

 Free energy of the ion-electron system (eV)
  ---------------------------------------------------
  alpha Z        PSCENC =         0.00380616
  Ewald energy   TEWEN  =       151.89277050
  -Hartree energ DENC   =      -544.26529483
  -exchange      EXHF   =         0.00000000
  -V(xc)+E(xc)   XCENC  =        32.42952953
  PAW double counting   =      3192.51165681    -3194.01239750
  entropy T*S    EENTRO =        -0.00000000
  eigenvalues    EBANDS =      -110.20687348
  atomic energy  EATOM  =       457.35384856
  Solvation  Ediel_sol  =         0.00000000
  ---------------------------------------------------
  free energy    TOTEN  =       -14.29295426 eV

  energy without entropy =      -14.29295426  energy(sigma->0) =      -14.29295426


--------------------------------------------------------------------------------------------------------




--------------------------------------- Iteration      1(  29)  ---------------------------------------


    POTLOK:  cpu time   40.2845: real time   40.3366
    SETDIJ:  cpu time    0.0405: real time    0.0406
     EDDAV:  cpu time   15.4261: real time   15.4464
       DOS:  cpu time    0.0036: real time    0.0036
    CHARGE:  cpu time    4.0750: real time    4.0796
    MIXING:  cpu time    2.0152: real time    2.0179
    --------------------------------------------
      LOOP:  cpu time   61.8449: real time   61.9247

 eigenvalue-minimisations  :    32
 total energy-change (2. order) :-0.1404981E-06  (-0.2094360E-09)
 number of electron       8.0000000 magnetization 
 augmentation part        0.0640165 magnetization 

 Broyden mixing:
  rms(total) = 0.37514E-05    rms(broyden)= 0.37514E-05
  rms(prec ) = 0.37621E-05
  weight for this iteration     100.00

 eigenvalues of (default mixing * dielectric matrix)
  average eigenvalue GAMMA=   2.5219
  9.8017  8.0926  6.3316  4.9278  4.0339  2.8608  2.7013  2.4985  2.4985  2.2118
  1.7641  1.1721  0.9992  0.9992  1.0640  1.0640  0.8970  0.8970  1.0752  0.9514
  0.9514  0.9114  0.9109  0.9109

 Free energy of the ion-electron system (eV)
  ---------------------------------------------------
  alpha Z        PSCENC =         0.00380616
  Ewald energy   TEWEN  =       151.89277050
  -Hartree energ DENC   =      -544.26528179
  -exchange      EXHF   =         0.00000000
  -V(xc)+E(xc)   XCENC  =        32.42952881
  PAW double counting   =      3192.51692150    -3194.01766211
  entropy T*S    EENTRO =        -0.00000000
  eigenvalues    EBANDS =      -110.20688604
  atomic energy  EATOM  =       457.35384856
  Solvation  Ediel_sol  =         0.00000000
  ---------------------------------------------------
  free energy    TOTEN  =       -14.29295440 eV

  energy without entropy =      -14.29295440  energy(sigma->0) =      -14.29295440


--------------------------------------------------------------------------------------------------------




--------------------------------------- Iteration      1(  30)  ---------------------------------------


    POTLOK:  cpu time   40.0962: real time   40.1452
    SETDIJ:  cpu time    0.0399: real time    0.0400
     EDDAV:  cpu time   15.4486: real time   15.4707
       DOS:  cpu time    0.0032: real time    0.0032
    CHARGE:  cpu time    4.1130: real time    4.1212
    MIXING:  cpu time    2.1343: real time    2.1372
    --------------------------------------------
      LOOP:  cpu time   61.8353: real time   61.9174

 eigenvalue-minimisations  :    32
 total energy-change (2. order) :-0.1009548E-06  (-0.1389218E-09)
 number of electron       8.0000000 magnetization 
 augmentation part        0.0640166 magnetization 

 Broyden mixing:
  rms(total) = 0.30087E-05    rms(broyden)= 0.30087E-05
  rms(prec ) = 0.30119E-05
  weight for this iteration     100.00

 eigenvalues of (default mixing * dielectric matrix)
  average eigenvalue GAMMA=   2.4781
  9.8242  8.1456  6.4335  4.9852  4.0797  2.9924  2.5693  2.5693  2.3591  2.1472
  1.8715  1.2607  1.2607  1.0779  1.0779  1.0005  1.0005  0.8970  0.8970  0.9529
  0.9529  0.9643  0.8842  0.8842  0.8655

 Free energy of the ion-electron system (eV)
  ---------------------------------------------------
  alpha Z        PSCENC =         0.00380616
  Ewald energy   TEWEN  =       151.89277050
  -Hartree energ DENC   =      -544.26527246
  -exchange      EXHF   =         0.00000000
  -V(xc)+E(xc)   XCENC  =        32.42952839
  PAW double counting   =      3192.52642296    -3194.02716383
  entropy T*S    EENTRO =        -0.00000000
  eigenvalues    EBANDS =      -110.20689478
  atomic energy  EATOM  =       457.35384856
  Solvation  Ediel_sol  =         0.00000000
  ---------------------------------------------------
  free energy    TOTEN  =       -14.29295450 eV

  energy without entropy =      -14.29295450  energy(sigma->0) =      -14.29295450


--------------------------------------------------------------------------------------------------------




--------------------------------------- Iteration      1(  31)  ---------------------------------------


    POTLOK:  cpu time   40.1085: real time   40.1583
    SETDIJ:  cpu time    0.0577: real time    0.0577
     EDDAV:  cpu time   15.4500: real time   15.4813
       DOS:  cpu time    0.0030: real time    0.0030
    --------------------------------------------
      LOOP:  cpu time   55.6192: real time   55.7003

 eigenvalue-minimisations  :    32
 total energy-change (2. order) :-0.1632532E-07  (-0.1054250E-09)
 number of electron       8.0000000 magnetization 
 augmentation part        0.0640166 magnetization 

 Free energy of the ion-electron system (eV)
  ---------------------------------------------------
  alpha Z        PSCENC =         0.00380616
  Ewald energy   TEWEN  =       151.89277050
  -Hartree energ DENC   =      -544.26527628
  -exchange      EXHF   =         0.00000000
  -V(xc)+E(xc)   XCENC  =        32.42952857
  PAW double counting   =      3192.52422217    -3194.02496306
  entropy T*S    EENTRO =        -0.00000000
  eigenvalues    EBANDS =      -110.20689113
  atomic energy  EATOM  =       457.35384856
  Solvation  Ediel_sol  =         0.00000000
  ---------------------------------------------------
  free energy    TOTEN  =       -14.29295451 eV

  energy without entropy =      -14.29295451  energy(sigma->0) =      -14.29295451


--------------------------------------------------------------------------------------------------------




 average (electrostatic) potential at core
  the test charge radii are     0.4325  0.5955
  (the norm of the test charge is              1.0000)
       1 -47.6807       2 -47.6807       3-119.6071
 
 
 
 E-fermi :  -7.1852     XC(G=0):  -0.0201     alpha+bet : -0.0032


 k-point     1 :       0.0000    0.0000    0.0000
  band No.  band energies     occupation 
      1     -25.3679      2.00000
      2     -13.1478      2.00000
      3      -9.3472      2.00000
      4      -7.2406      2.00000
      5      -0.9484      0.00000
      6      -0.0007      0.00000
      7       0.1043      0.00000
      8       0.1130      0.00000


--------------------------------------------------------------------------------------------------------


 soft charge-density along one line, spin component            1
         0         1         2         3         4         5         6         7         8         9
 total charge-density along one line
 
 pseudopotential strength for first ion, spin component:            1
 -2.535  -5.389   0.003  -0.010   0.000
 -5.389 -11.435   0.007  -0.022   0.001
  0.003   0.007  -1.387  -0.007   0.000
 -0.010  -0.022  -0.007  -1.366  -0.001
  0.000   0.001   0.000  -0.001  -1.389
 total augmentation occupancy for first ion, spin component:            1
  4.228  -0.793  -0.097   0.362  -0.014
 -0.793   0.177   0.017  -0.069   0.003
 -0.097   0.017   0.009  -0.006   0.000
  0.362  -0.069  -0.006   0.032  -0.001
 -0.014   0.003   0.000  -0.001   0.011


------------------------ aborting loop because EDIFF is reached ----------------------------------------



 DIPCOR: dipole corrections for dipol
 direction  1 min pos   617, direction  2 min pos   608, direction  3 min pos   551,
 dipolmoment          -0.011225      0.230467      0.295334 electrons x Angstroem
 Tr[quadrupol]         2.689318

 energy correction for charged system         0.000000 eV
 dipol+quadrupol energy correction            0.000099 eV
 added-field ion interaction          0.000000 eV  (added to PSCEN)

 
  *************** adding dipol energy to TOTEN NOW **************** 
    CHARGE:  cpu time    4.0967: real time    4.1048
    FORLOC:  cpu time    1.5837: real time    1.5850
    FORNL :  cpu time    0.1932: real time    0.1935
    STRESS:  cpu time    5.4254: real time    5.4321
    FORCOR:  cpu time   38.0767: real time   38.1199
    FORHAR:  cpu time   11.5062: real time   11.5201
    MIXING:  cpu time    2.1266: real time    2.1337
    OFIELD:  cpu time    0.0000: real time    0.0000

  FORCE on cell =-STRESS in cart. coord.  units (eV):
  Direction    XX          YY          ZZ          XY          YZ          ZX
  --------------------------------------------------------------------------------------
  Alpha Z     0.00381     0.00381     0.00381
  Ewald     -12.32922    88.67172    75.55001     0.98150   -25.82530    -3.34380
  Hartree   170.30453   188.10072   185.86003     0.16748    -4.40685    -0.59165
  E(xc)     -37.24183   -36.76794   -36.82129     0.00399    -0.10487    -0.01601
  Local    -320.14115  -405.57088  -394.22178    -0.84896    22.33792     2.81822
  n-local   -25.57999   -21.04838   -21.73792     0.05168    -1.35984    -0.14623
  augment     1.13152     0.46962     0.53960    -0.00522     0.13743     0.02253
  Kinetic   223.85039   186.56219   191.18676    -0.34586     9.10027     1.24318
  Fock        0.00000     0.00000     0.00000     0.00000     0.00000     0.00000
  -------------------------------------------------------------------------------------
  Total      -0.00194     0.42086     0.35922     0.00461    -0.12125    -0.01376
  in kB      -0.00007     0.01573     0.01342     0.00017    -0.00453    -0.00051
  external pressure =        0.01 kB  Pullay stress =        0.00 kB


 VOLUME and BASIS-vectors are now :
 -----------------------------------------------------------------------------
  energy-cutoff  :     2000.00
  volume of cell :    42875.00
      direct lattice vectors                 reciprocal lattice vectors
    35.000000000  0.000000000  0.000000000     0.028571429  0.000000000  0.000000000
     0.000000000 35.000000000  0.000000000     0.000000000  0.028571429  0.000000000
     0.000000000  0.000000000 35.000000000     0.000000000  0.000000000  0.028571429

  length of vectors
    35.000000000 35.000000000 35.000000000     0.028571429  0.028571429  0.028571429


 FORCES acting on ions
    electron-ion (+dipol)            ewald-force                    non-local-force                 convergence-correction
 -----------------------------------------------------------------------------------------------
   -.326E+01 -.252E+02 0.858E+02   0.359E+01 0.277E+02 -.944E+02   -.314E+00 -.237E+01 0.827E+01   0.211E-07 -.927E-07 -.234E-06
   0.134E+00 0.894E+02 -.354E+01   -.146E+00 -.984E+02 0.385E+01   0.106E-01 0.860E+01 -.278E+00   0.185E-07 -.207E-06 -.149E-06
   0.188E+01 -.386E+02 -.495E+02   -.344E+01 0.707E+02 0.906E+02   0.155E+01 -.318E+02 -.408E+02   0.368E-06 -.227E-05 -.294E-05
 -----------------------------------------------------------------------------------------------
   -.125E+01 0.256E+02 0.328E+02   0.000E+00 0.142E-13 0.000E+00   0.125E+01 -.256E+02 -.328E+02   0.408E-06 -.257E-05 -.332E-05
 
 
 POSITION                                       TOTAL-FORCE (eV/Angst)
 -----------------------------------------------------------------------------------
      0.03541      3.95416     34.06830         0.014762      0.130130     -0.388405
      0.00000      2.75848      0.00000        -0.001196     -0.408679      0.031452
      0.00000      3.71985      0.00000        -0.013566      0.278549      0.356952
 -----------------------------------------------------------------------------------
    total drift:                                0.000001     -0.000014      0.000005


--------------------------------------------------------------------------------------------------------



  FREE ENERGIE OF THE ION-ELECTRON SYSTEM (eV)
  ---------------------------------------------------
  free  energy   TOTEN  =       -14.29285571 eV

  energy  without entropy=      -14.29285571  energy(sigma->0) =      -14.29285571
 


--------------------------------------------------------------------------------------------------------


    POTLOK:  cpu time   40.2454: real time   40.2876


--------------------------------------------------------------------------------------------------------


 writing wavefunctions
     LOOP+:  cpu time 2441.4039: real time 2444.3920
    4ORBIT:  cpu time    0.0000: real time    0.0000

 total amount of memory used by VASP MPI-rank0  7197737. kBytes
=======================================================================

   base      :      30000. kBytes
   nonl-proj :      95785. kBytes
   fftplans  :    2602168. kBytes
   grid      :    4434952. kBytes
   one-center:          1. kBytes
   wavefun   :      34831. kBytes
 
  
  
 General timing and accounting informations for this job:
 ========================================================
  
                  Total CPU time used (sec):     3258.223
                            User time (sec):     3067.826
                          System time (sec):      190.397
                         Elapsed time (sec):     3262.463
  
                   Maximum memory used (kb):     9755800.
                   Average memory used (kb):           0.
  
                          Minor page faults:    134332547
                          Major page faults:          206
                 Voluntary context switches:         2214
