 vasp.6.1.2 22Jul20 (build Jan  6 2021 09:55:43) gamma-only                      
 executed on             LinuxPGI date 2021.04.04  02:30:34
 running on   16 total cores
 distrk:  each k-point on   16 cores,    1 groups
 distr:  one band on NCORE=   8 cores,    2 groups


--------------------------------------------------------------------------------------------------------


 INCAR:
 POTCAR:    PAW_PBE H_h 06Feb2004                 
 POTCAR:    PAW_PBE C_h 06Feb2004                 
 POTCAR:    PAW_PBE O_h 06Feb2004                 
 POTCAR:    PAW_PBE H_h 06Feb2004                 
   VRHFIN =H: ultrasoft test                                                                        
   LEXCH  = PE                                                                                      
   EATOM  =    12.4884 eV,    0.9179 Ry                                                             
                                                                                                    
   TITEL  = PAW_PBE H_h 06Feb2004                                                                   
   LULTRA =        F    use ultrasoft PP ?                                                          
   IUNSCR =        0    unscreen: 0-lin 1-nonlin 2-no                                               
   RPACOR =    0.000    partial core radius                                                         
   POMASS =    1.000; ZVAL   =    1.000    mass and valenz                                          
   RCORE  =    0.800    outmost cutoff radius                                                       
   RWIGS  =    0.700; RWIGS  =    0.370    wigner-seitz radius (au A)                               
   ENMAX  =  700.000; ENMIN  =  350.000 eV                                                          
   RCLOC  =    0.701    cutoff for local pot                                                        
   LCOR   =        T    correct aug charges                                                         
   LPAW   =        T    paw PP                                                                      
   EAUG   = 1000.000                                                                                
   RMAX   =    0.819    core radius for proj-oper                                                   
   RAUG   =    1.000    factor for augmentation sphere                                              
   RDEP   =    0.817    radius for radial grids                                                     
   RDEPT  =    0.817    core radius for aug-charge                                                  
                                                                                                    
   Atomic configuration                                                                             
    2 entries                                                                                       
     n  l   j            E        occ.                                                              
     1  0  0.50        -6.4927   1.0000                                                             
     2  1  0.50        -3.4015   0.0000                                                             
   Description                                                                                      
     l       E           TYP  RCUT    TYP  RCUT                                                     
     0     -6.4927493     23  0.800                                                                 
     0      6.8029130     23  0.800                                                                 
     1     -6.8029130     23  0.800                                                                 
  local pseudopotential read in
  atomic valenz-charges read in
  non local Contribution for L=            0  read in
    real space projection operators read in
  non local Contribution for L=            0  read in
    real space projection operators read in
  non local Contribution for L=            1  read in
    real space projection operators read in
    PAW grid and wavefunctions read in
 
   number of l-projection  operators is LMAX  =            3
   number of lm-projection operators is LMMAX =            5
 
 POTCAR:    PAW_PBE C_h 06Feb2004                 
   VRHFIN =C: s2p2                                                                                  
   LEXCH  = PE                                                                                      
   EATOM  =   147.1560 eV,   10.8157 Ry                                                             
                                                                                                    
   TITEL  = PAW_PBE C_h 06Feb2004                                                                   
   LULTRA =        F    use ultrasoft PP ?                                                          
   IUNSCR =        1    unscreen: 0-lin 1-nonlin 2-no                                               
   RPACOR =    0.800    partial core radius                                                         
   POMASS =   12.011; ZVAL   =    4.000    mass and valenz                                          
   RCORE  =    1.100    outmost cutoff radius                                                       
   RWIGS  =    1.630; RWIGS  =    0.863    wigner-seitz radius (au A)                               
   ENMAX  =  700.000; ENMIN  =  500.000 eV                                                          
   ICORE  =        2    local potential                                                             
   LCOR   =        T    correct aug charges                                                         
   LPAW   =        T    paw PP                                                                      
   EAUG   =  946.768                                                                                
   DEXC   =    0.000                                                                                
   RMAX   =    1.128    core radius for proj-oper                                                   
   RAUG   =    1.300    factor for augmentation sphere                                              
   RDEP   =    1.162    radius for radial grids                                                     
   RDEPT  =    1.088    core radius for aug-charge                                                  
                                                                                                    
   Atomic configuration                                                                             
    4 entries                                                                                       
     n  l   j            E        occ.                                                              
     1  0  0.50      -273.3789   2.0000                                                             
     2  0  0.50       -13.7508   2.0000                                                             
     2  1  0.50        -5.2854   2.0000                                                             
     3  2  1.50        -5.4423   0.0000                                                             
   Description                                                                                      
     l       E           TYP  RCUT    TYP  RCUT                                                     
     0    -13.7508458     23  1.100                                                                 
     0     -8.2022199     23  1.100                                                                 
     1     -5.2854383     23  1.100                                                                 
     1      1.1560700     23  1.100                                                                 
     2     -5.4423304      7  1.100                                                                 
  local pseudopotential read in
  partial core-charges read in
  partial kinetic energy density read in
  atomic valenz-charges read in
  non local Contribution for L=            0  read in
    real space projection operators read in
  non local Contribution for L=            0  read in
    real space projection operators read in
  non local Contribution for L=            1  read in
    real space projection operators read in
  non local Contribution for L=            1  read in
    real space projection operators read in
    PAW grid and wavefunctions read in
 
   number of l-projection  operators is LMAX  =            4
   number of lm-projection operators is LMMAX =            8
 
 POTCAR:    PAW_PBE O_h 06Feb2004                 
   VRHFIN =O: s2p4                                                                                  
   LEXCH  = PE                                                                                      
   EATOM  =   432.3788 eV,   31.7789 Ry                                                             
                                                                                                    
   TITEL  = PAW_PBE O_h 06Feb2004                                                                   
   LULTRA =        F    use ultrasoft PP ?                                                          
   IUNSCR =        1    unscreen: 0-lin 1-nonlin 2-no                                               
   RPACOR =    0.800    partial core radius                                                         
   POMASS =   16.000; ZVAL   =    6.000    mass and valenz                                          
   RCORE  =    1.100    outmost cutoff radius                                                       
   RWIGS  =    1.400; RWIGS  =    0.741    wigner-seitz radius (au A)                               
   ENMAX  =  700.000; ENMIN  =  500.000 eV                                                          
   ICORE  =        2    local potential                                                             
   LCOR   =        T    correct aug charges                                                         
   LPAW   =        T    paw PP                                                                      
   EAUG   =  888.804                                                                                
   DEXC   =    0.000                                                                                
   RMAX   =    1.128    core radius for proj-oper                                                   
   RAUG   =    1.300    factor for augmentation sphere                                              
   RDEP   =    1.125    radius for radial grids                                                     
   RDEPT  =    1.088    core radius for aug-charge                                                  
                                                                                                    
   Atomic configuration                                                                             
    4 entries                                                                                       
     n  l   j            E        occ.                                                              
     1  0  0.50      -514.6923   2.0000                                                             
     2  0  0.50       -23.9615   2.0000                                                             
     2  1  0.50        -9.0305   4.0000                                                             
     3  2  1.50        -9.5241   0.0000                                                             
   Description                                                                                      
     l       E           TYP  RCUT    TYP  RCUT                                                     
     0    -23.9615319     23  1.100                                                                 
     0    -25.3221145     23  1.100                                                                 
     1     -9.0304911     23  1.100                                                                 
     1     -5.4802209     23  1.100                                                                 
     2     -9.5240782      7  1.100                                                                 
  local pseudopotential read in
  partial core-charges read in
  partial kinetic energy density read in
  atomic valenz-charges read in
  non local Contribution for L=            0  read in
    real space projection operators read in
  non local Contribution for L=            0  read in
    real space projection operators read in
  non local Contribution for L=            1  read in
    real space projection operators read in
  non local Contribution for L=            1  read in
    real space projection operators read in
    PAW grid and wavefunctions read in
 
   number of l-projection  operators is LMAX  =            4
   number of lm-projection operators is LMMAX =            8
 
  PAW_PBE H_h 06Feb2004                 :
 energy of atom  1       EATOM=  -12.4884
 kinetic energy error for atom=    0.0001 (will be added to EATOM!!)
  PAW_PBE C_h 06Feb2004                 :
 energy of atom  2       EATOM= -147.1560
 kinetic energy error for atom=    0.0004 (will be added to EATOM!!)
  PAW_PBE O_h 06Feb2004                 :
 energy of atom  3       EATOM= -432.3788
 kinetic energy error for atom=    0.0016 (will be added to EATOM!!)
 
 
 POSCAR:  H  C  O
  positions in cartesian coordinates
  No initial velocities read in
 exchange correlation table for  LEXCH =        8
   RHO(1)=    0.500       N(1)  =     2000
   RHO(2)=  100.500       N(2)  =     4000
 


--------------------------------------------------------------------------------------------------------


 ion  position               nearest neighbor table
   1  0.001  0.116  0.973-   6 0.96
   2  0.000  0.082  0.000-   6 0.96
   3  0.000  0.003  0.000-   4 1.17   5 1.17
   4  0.000  0.036  0.000-   3 1.17
   5  0.000  0.969  0.000-   3 1.17
   6  0.000  0.109  0.000-   2 0.96   1 0.96
 
  LATTYP: Found a simple cubic cell.
 ALAT       =    35.0000000000
  
  Lattice vectors:
  
 A1 = (  35.0000000000,   0.0000000000,   0.0000000000)
 A2 = (   0.0000000000,  35.0000000000,   0.0000000000)
 A3 = (   0.0000000000,   0.0000000000,  35.0000000000)


Analysis of symmetry for initial positions (statically):
=====================================================================
 Subroutine PRICEL returns:
 Original cell was already a primitive cell.
 

 Routine SETGRP: Setting up the symmetry group for a 
 simple cubic supercell.


 Subroutine GETGRP returns: Found  1 space group operations
 (whereof  1 operations were pure point group operations)
 out of a pool of 48 trial point group operations.


The static configuration has the point symmetry C_1 .


Analysis of symmetry for dynamics (positions and initial velocities):
=====================================================================
 Subroutine PRICEL returns:
 Original cell was already a primitive cell.
 

 Routine SETGRP: Setting up the symmetry group for a 
 simple cubic supercell.


 Subroutine GETGRP returns: Found  1 space group operations
 (whereof  1 operations were pure point group operations)
 out of a pool of 48 trial point group operations.


The dynamic configuration has the point symmetry C_1 .


 Subroutine INISYM returns: Found  1 space group operations
 (whereof  1 operations are pure point group operations),
 and found     1 'primitive' translations


----------------------------------------------------------------------------------------

                                     Primitive cell                                     

  volume of cell :   42875.0000

  direct lattice vectors                    reciprocal lattice vectors
    35.000000000  0.000000000  0.000000000     0.028571429  0.000000000  0.000000000
     0.000000000 35.000000000  0.000000000     0.000000000  0.028571429  0.000000000
     0.000000000  0.000000000 35.000000000     0.000000000  0.000000000  0.028571429

  length of vectors
    35.000000000 35.000000000 35.000000000     0.028571429  0.028571429  0.028571429

  position of ions in fractional coordinates (direct lattice)
     0.001011704  0.115833259  0.973379868
     0.000000000  0.081670743  0.000000000
     0.000000000  0.002521600  0.000000000
     0.000000000  0.035956457  0.000000000
     0.000000000  0.969086743  0.000000000
     0.000000000  0.109138457  0.000000000

  ion indices of the primitive-cell ions
   primitive index   ion index
                 1           1
                 2           2
                 3           3
                 4           4
                 5           5
                 6           6

----------------------------------------------------------------------------------------

 
 
 KPOINTS: automatic mesh                          

Automatic generation of k-mesh.
Space group operators:
 irot       det(A)        alpha          n_x          n_y          n_z        tau_x        tau_y        tau_z
    1     1.000000     0.000000     1.000000     0.000000     0.000000     0.000000     0.000000     0.000000
 
 Subroutine IBZKPT returns following result:
 ===========================================
 
 Found      1 irreducible k-points:
 
 Following reciprocal coordinates:
            Coordinates               Weight
  0.000000  0.000000  0.000000      1.000000
 
 Following cartesian coordinates:
            Coordinates               Weight
  0.000000  0.000000  0.000000      1.000000
 


--------------------------------------------------------------------------------------------------------




 Dimension of arrays:
   k-points           NKPTS =      1   k-points in BZ     NKDIM =      1   number of bands    NBANDS=     16
   number of dos      NEDOS =    301   number of ions     NIONS =      6
   non local maximal  LDIM  =      4   non local SUM 2l+1 LMDIM =      8
   total plane-waves  NPLWV = ******
   max r-space proj   IRMAX =      1   max aug-charges    IRDMAX=  23028
   dimension x,y,z NGX =   512 NGY =  512 NGZ =  512
   dimension x,y,z NGXF=  1024 NGYF= 1024 NGZF= 1024
   support grid    NGXF=  1024 NGYF= 1024 NGZF= 1024
   ions per type =               2   1   3
   NGX,Y,Z   is equivalent  to a cutoff of  24.32, 24.32, 24.32 a.u.
   NGXF,Y,Z  is equivalent  to a cutoff of  48.64, 48.64, 48.64 a.u.

 SYSTEM =  C                                       
 POSCAR =   H  C  O                                

 Startparameter for this run:
   NWRITE =      2    write-flag & timer
   PREC   = acc       normal or accurate (medium, high low for compatibility)
   ISTART =      0    job   : 0-new  1-cont  2-samecut
   ICHARG =      2    charge: 1-file 2-atom 10-const
   ISPIN  =      1    spin polarized calculation?
   LNONCOLLINEAR =      F non collinear calculations
   LSORBIT =      F    spin-orbit coupling
   INIWAV =      1    electr: 0-lowe 1-rand  2-diag
   LASPH  =      T    aspherical Exc in radial PAW
   METAGGA=      F    non-selfconsistent MetaGGA calc.

 Electronic Relaxation 1
   ENCUT  = 2000.0 eV 147.00 Ry   12.12 a.u. 127.63127.63127.63*2*pi/ulx,y,z
   ENINI  = 2000.0     initial cutoff
   ENAUG  = 1000.0 eV  augmentation charge cutoff
   NELM   =     60;   NELMIN=  2; NELMDL= -5     # of ELM steps 
   EDIFF  = 0.1E-06   stopping-criterion for ELM
   LREAL  =      F    real-space projection
   NLSPLINE    = F    spline interpolate recip. space projectors
   LCOMPAT=      F    compatible to vasp.4.4
   GGA_COMPAT  = T    GGA compatible to vasp.4.4-vasp.4.6
   LMAXPAW     = -100 max onsite density
   LMAXMIX     =    2 max onsite mixed and CHGCAR
   VOSKOWN=      0    Vosko Wilk Nusair interpolation
   ROPT   =    0.00000   0.00000   0.00000
 Ionic relaxation
   EDIFFG = 0.1E-05   stopping-criterion for IOM
   NSW    =      0    number of steps for IOM
   NBLOCK =      1;   KBLOCK =      1    inner block; outer block 
   IBRION =     -1    ionic relax: 0-MD 1-quasi-New 2-CG
   NFREE  =      0    steps in history (QN), initial steepest desc. (CG)
   ISIF   =      2    stress and relaxation
   IWAVPR =     10    prediction:  0-non 1-charg 2-wave 3-comb
   ISYM   =      2    0-nonsym 1-usesym 2-fastsym
   LCORR  =      T    Harris-Foulkes like correction to forces

   POTIM  = 0.5000    time-step for ionic-motion
   TEIN   =    0.0    initial temperature
   TEBEG  =    0.0;   TEEND  =   0.0 temperature during run
   SMASS  =  -3.00    Nose mass-parameter (am)
   estimated Nose-frequenzy (Omega)   =  0.10E-29 period in steps = 0.13E+47 mass=  -0.280E-25a.u.
   SCALEE = 1.0000    scale energy and forces
   NPACO  =    256;   APACO  = 16.0  distance and # of slots for P.C.
   PSTRESS=    0.0 pullay stress

  Mass of Ions in am
   POMASS =   1.00 12.01 16.00
  Ionic Valenz
   ZVAL   =   1.00  4.00  6.00
  Atomic Wigner-Seitz radii
   RWIGS  =  -1.00 -1.00 -1.00
  virtual crystal weights 
   VCA    =   1.00  1.00  1.00
   NELECT =      24.0000    total number of electrons
   NUPDOWN=      -1.0000    fix difference up-down

 DOS related values:
   EMIN   =  10.00;   EMAX   =-10.00  energy-range for DOS
   EFERMI =   0.00
   ISMEAR =     0;   SIGMA  =   0.01  broadening in eV -4-tet -1-fermi 0-gaus

 Electronic relaxation 2 (details)
   IALGO  =     38    algorithm
   LDIAG  =      T    sub-space diagonalisation (order eigenvalues)
   LSUBROT=      F    optimize rotation matrix (better conditioning)
   TURBO    =      0    0=normal 1=particle mesh
   IRESTART =      0    0=no restart 2=restart with 2 vectors
   NREBOOT  =      0    no. of reboots
   NMIN     =      0    reboot dimension
   EREF     =   0.00    reference energy to select bands
   IMIX   =      4    mixing-type and parameters
     AMIX     =   0.40;   BMIX     =  1.00
     AMIX_MAG =   1.60;   BMIX_MAG =  1.00
     AMIN     =   0.10
     WC   =   100.;   INIMIX=   1;  MIXPRE=   1;  MAXMIX= -45

 Intra band minimization:
   WEIMIN = 0.0000     energy-eigenvalue tresh-hold
   EBREAK =  0.16E-08  absolut break condition
   DEPER  =   0.30     relativ break condition  

   TIME   =   0.40     timestep for ELM

  volume/ion in A,a.u.               =    7145.83     48222.46
  Fermi-wavevector in a.u.,A,eV,Ry     =   0.134920  0.254962  0.247673  0.018203
  Thomas-Fermi vector in A             =   0.783236
 
 Write flags
   LWAVE        =      T    write WAVECAR
   LDOWNSAMPLE  =      F    k-point downsampling of WAVECAR
   LCHARG       =      T    write CHGCAR
   LVTOT        =      F    write LOCPOT, total local potential
   LVHAR        =      F    write LOCPOT, Hartree potential only
   LELF         =      F    write electronic localiz. function (ELF)
   LORBIT       =      0    0 simple, 1 ext, 2 COOP (PROOUT), +10 PAW based schemes


 Dipole corrections
   LMONO  =      F    monopole corrections only (constant potential shift)
   LDIPOL =      F    correct potential (dipole corrections)
   IDIPOL =      4    1-x, 2-y, 3-z, 4-all directions 
   EPSILON=  1.0000000 bulk dielectric constant

 Exchange correlation treatment:
   GGA     =    --    GGA type
   LEXCH   =     8    internal setting for exchange type
   VOSKOWN=      0    Vosko Wilk Nusair interpolation
   LHFCALC =     F    Hartree Fock is set to
   LHFONE  =     F    Hartree Fock one center treatment
   AEXX    =    0.0000 exact exchange contribution

 Linear response parameters
   LEPSILON=     F    determine dielectric tensor
   LRPA    =     F    only Hartree local field effects (RPA)
   LNABLA  =     F    use nabla operator in PAW spheres
   LVEL    =     F    velocity operator in full k-point grid
   LINTERFAST=   F  fast interpolation
   KINTER  =     0    interpolate to denser k-point grid
   CSHIFT  =0.1000    complex shift for real part using Kramers Kronig
   OMEGAMAX=  -1.0    maximum frequency
   DEG_THRESHOLD= 0.2000000E-02 threshold for treating states as degnerate
   RTIME   =   -0.100 relaxation time in fs
  (WPLASMAI=    0.000 imaginary part of plasma frequency in eV, 0.658/RTIME)
   DFIELD  = 0.0000000 0.0000000 0.0000000 field for delta impulse in time
 
 Orbital magnetization related:
   ORBITALMAG=     F  switch on orbital magnetization
   LCHIMAG   =     F  perturbation theory with respect to B field
   DQ        =  0.001000  dq finite difference perturbation B field
   LLRAUG    =     F  two centre corrections for induced B field



--------------------------------------------------------------------------------------------------------


 Static calculation
 charge density and potential will be updated during run
 non-spin polarized calculation
 Variant of blocked Davidson
 Davidson routine will perform the subspace rotation
 perform sub-space diagonalisation
    after iterative eigenvector-optimisation
 modified Broyden-mixing scheme, WC =      100.0
 initial mixing is a Kerker type mixing with AMIX =  0.4000 and BMIX =      1.0000
 Hartree-type preconditioning will be used
 using additional bands             4
 reciprocal scheme for non local part
 use partial core corrections
 calculate Harris-corrections to forces 
   (improved forces if not selfconsistent)
 use gradient corrections 
 use of overlap-Matrix (Vanderbilt PP)
 Gauss-broadening in eV      SIGMA  =   0.01


--------------------------------------------------------------------------------------------------------


  energy-cutoff  :     2000.00
  volume of cell :    42875.00
      direct lattice vectors                 reciprocal lattice vectors
    35.000000000  0.000000000  0.000000000     0.028571429  0.000000000  0.000000000
     0.000000000 35.000000000  0.000000000     0.000000000  0.028571429  0.000000000
     0.000000000  0.000000000 35.000000000     0.000000000  0.000000000  0.028571429

  length of vectors
    35.000000000 35.000000000 35.000000000     0.028571429  0.028571429  0.028571429


 
 k-points in units of 2pi/SCALE and weight: automatic mesh                          
   0.00000000  0.00000000  0.00000000       1.000
 
 k-points in reciprocal lattice and weights: automatic mesh                          
   0.00000000  0.00000000  0.00000000       1.000
 
 position of ions in fractional coordinates (direct lattice) 
   0.00101170  0.11583326  0.97337987
   0.00000000  0.08167074  0.00000000
   0.00000000  0.00252160  0.00000000
   0.00000000  0.03595646  0.00000000
   0.00000000  0.96908674  0.00000000
   0.00000000  0.10913846  0.00000000
 
 position of ions in cartesian coordinates  (Angst):
   0.03540965  4.05416408 34.06829539
   0.00000000  2.85847600  0.00000000
   0.00000000  0.08825600  0.00000000
   0.00000000  1.25847600  0.00000000
   0.00000000 33.91803600  0.00000000
   0.00000000  3.81984600  0.00000000
 


--------------------------------------------------------------------------------------------------------


 use parallel FFT for orbitals z direction half grid
 k-point   1 :   0.0000 0.0000 0.0000  plane waves: 4353902

 maximum and minimum number of plane-waves per node :    544247   544233

 maximum number of plane-waves:   4353902
 maximum index in each direction: 
   IXMAX=  127   IYMAX=  127   IZMAX=  127
   IXMIN= -127   IYMIN= -127   IZMIN=    0


 parallel 3D FFT for wavefunctions:
    minimum data exchange during FFTs selected (reduces bandwidth)
 parallel 3D FFT for charge:
    minimum data exchange during FFTs selected (reduces bandwidth)


 total amount of memory used by VASP MPI-rank0  7831441. kBytes
=======================================================================

   base      :      30000. kBytes
   nonl-proj :     156739. kBytes
   fftplans  :    2602168. kBytes
   grid      :    4972871. kBytes
   one-center:          1. kBytes
   wavefun   :      69662. kBytes
 
     INWAV:  cpu time    0.0000: real time    0.0000
 Broyden mixing: mesh for mixing (old mesh)
   NGX =255   NGY =255   NGZ =255
  (NGX  =***   NGY  =***   NGZ  =***)
  gives a total of ****** points

 initial charge density was supplied:
 charge density of overlapping atoms calculated
 number of electron      24.0000000 magnetization 
 keeping initial charge density in first step


--------------------------------------------------------------------------------------------------------


 Maximum index for augmentation-charges          1253 (set IRDMAX)


--------------------------------------------------------------------------------------------------------


 First call to EWALD:  gamma=   0.051
 Maximum number of real-space cells 3x 3x 3
 Maximum number of reciprocal cells 3x 3x 3

    FEWALD:  cpu time    0.0009: real time    0.0009


--------------------------------------- Iteration      1(   1)  ---------------------------------------


    POTLOK:  cpu time   47.1779: real time   47.2343
    SETDIJ:  cpu time    0.0560: real time    0.0578
     EDDAV:  cpu time   25.9210: real time   25.9769
       DOS:  cpu time    0.0115: real time    0.0115
    --------------------------------------------
      LOOP:  cpu time   73.1663: real time   73.2805

 eigenvalue-minimisations  :    48
 total energy-change (2. order) : 0.2555872E+03  (-0.4881937E+03)
 number of electron      24.0000000 magnetization 
 augmentation part       24.0000000 magnetization 

 Free energy of the ion-electron system (eV)
  ---------------------------------------------------
  alpha Z        PSCENC =         0.03650749
  Ewald energy   TEWEN  =      1224.20150596
  -Hartree energ DENC   =     -2381.40204186
  -exchange      EXHF   =         0.00000000
  -V(xc)+E(xc)   XCENC  =        89.16852053
  PAW double counting   =      1157.32287951    -1155.71656308
  entropy T*S    EENTRO =        -0.00000014
  eigenvalues    EBANDS =      -147.28735330
  atomic energy  EATOM  =      1469.26374278
  Solvation  Ediel_sol  =         0.00000000
  ---------------------------------------------------
  free energy    TOTEN  =       255.58719789 eV

  energy without entropy =      255.58719803  energy(sigma->0) =      255.58719796


--------------------------------------------------------------------------------------------------------




--------------------------------------- Iteration      1(   2)  ---------------------------------------


     EDDAV:  cpu time   25.9875: real time   26.0262
       DOS:  cpu time    0.0095: real time    0.0095
    --------------------------------------------
      LOOP:  cpu time   25.9970: real time   26.0357

 eigenvalue-minimisations  :    48
 total energy-change (2. order) :-0.1156738E+03  (-0.1155905E+03)
 number of electron      24.0000000 magnetization 
 augmentation part       24.0000000 magnetization 

 Free energy of the ion-electron system (eV)
  ---------------------------------------------------
  alpha Z        PSCENC =         0.03650749
  Ewald energy   TEWEN  =      1224.20150596
  -Hartree energ DENC   =     -2381.40204186
  -exchange      EXHF   =         0.00000000
  -V(xc)+E(xc)   XCENC  =        89.16852053
  PAW double counting   =      1157.32287951    -1155.71656308
  entropy T*S    EENTRO =        -0.00001985
  eigenvalues    EBANDS =      -262.96113199
  atomic energy  EATOM  =      1469.26374278
  Solvation  Ediel_sol  =         0.00000000
  ---------------------------------------------------
  free energy    TOTEN  =       139.91339949 eV

  energy without entropy =      139.91341934  energy(sigma->0) =      139.91340942


--------------------------------------------------------------------------------------------------------




--------------------------------------- Iteration      1(   3)  ---------------------------------------


     EDDAV:  cpu time   29.2417: real time   29.2856
       DOS:  cpu time    0.0102: real time    0.0103
    --------------------------------------------
      LOOP:  cpu time   29.2519: real time   29.2959

 eigenvalue-minimisations  :    56
 total energy-change (2. order) :-0.8762021E+02  (-0.8740597E+02)
 number of electron      24.0000000 magnetization 
 augmentation part       24.0000000 magnetization 

 Free energy of the ion-electron system (eV)
  ---------------------------------------------------
  alpha Z        PSCENC =         0.03650749
  Ewald energy   TEWEN  =      1224.20150596
  -Hartree energ DENC   =     -2381.40204186
  -exchange      EXHF   =         0.00000000
  -V(xc)+E(xc)   XCENC  =        89.16852053
  PAW double counting   =      1157.32287951    -1155.71656308
  entropy T*S    EENTRO =        -0.00000000
  eigenvalues    EBANDS =      -350.58135741
  atomic energy  EATOM  =      1469.26374278
  Solvation  Ediel_sol  =         0.00000000
  ---------------------------------------------------
  free energy    TOTEN  =        52.29319392 eV

  energy without entropy =       52.29319392  energy(sigma->0) =       52.29319392


--------------------------------------------------------------------------------------------------------




--------------------------------------- Iteration      1(   4)  ---------------------------------------


     EDDAV:  cpu time   26.2719: real time   26.3109
       DOS:  cpu time    0.0114: real time    0.0114
    --------------------------------------------
      LOOP:  cpu time   26.2833: real time   26.3222

 eigenvalue-minimisations  :    48
 total energy-change (2. order) :-0.7001539E+02  (-0.7000498E+02)
 number of electron      24.0000000 magnetization 
 augmentation part       24.0000000 magnetization 

 Free energy of the ion-electron system (eV)
  ---------------------------------------------------
  alpha Z        PSCENC =         0.03650749
  Ewald energy   TEWEN  =      1224.20150596
  -Hartree energ DENC   =     -2381.40204186
  -exchange      EXHF   =         0.00000000
  -V(xc)+E(xc)   XCENC  =        89.16852053
  PAW double counting   =      1157.32287951    -1155.71656308
  entropy T*S    EENTRO =        -0.00000000
  eigenvalues    EBANDS =      -420.59674568
  atomic energy  EATOM  =      1469.26374278
  Solvation  Ediel_sol  =         0.00000000
  ---------------------------------------------------
  free energy    TOTEN  =       -17.72219435 eV

  energy without entropy =      -17.72219435  energy(sigma->0) =      -17.72219435


--------------------------------------------------------------------------------------------------------




--------------------------------------- Iteration      1(   5)  ---------------------------------------


     EDDAV:  cpu time   22.9053: real time   22.9392
       DOS:  cpu time    0.0119: real time    0.0119
    CHARGE:  cpu time    6.0466: real time    6.0550
    MIXING:  cpu time    1.0384: real time    1.0396
    --------------------------------------------
      LOOP:  cpu time   30.0022: real time   30.0457

 eigenvalue-minimisations  :    40
 total energy-change (2. order) :-0.2282306E+02  (-0.2282305E+02)
 number of electron      24.0000000 magnetization 
 augmentation part        0.2070687 magnetization 

 Broyden mixing:
  rms(total) = 0.35791E+01    rms(broyden)= 0.35791E+01
  rms(prec ) = 0.35888E+01
  weight for this iteration     100.00

 Free energy of the ion-electron system (eV)
  ---------------------------------------------------
  alpha Z        PSCENC =         0.03650749
  Ewald energy   TEWEN  =      1224.20150596
  -Hartree energ DENC   =     -2381.40204186
  -exchange      EXHF   =         0.00000000
  -V(xc)+E(xc)   XCENC  =        89.16852053
  PAW double counting   =      1157.32287951    -1155.71656308
  entropy T*S    EENTRO =        -0.00000000
  eigenvalues    EBANDS =      -443.41980815
  atomic energy  EATOM  =      1469.26374278
  Solvation  Ediel_sol  =         0.00000000
  ---------------------------------------------------
  free energy    TOTEN  =       -40.54525682 eV

  energy without entropy =      -40.54525682  energy(sigma->0) =      -40.54525682


--------------------------------------------------------------------------------------------------------




--------------------------------------- Iteration      1(   6)  ---------------------------------------


    POTLOK:  cpu time   47.1302: real time   47.1863
    SETDIJ:  cpu time    0.0584: real time    0.0585
     EDDAV:  cpu time   19.5141: real time   19.5438
       DOS:  cpu time    0.0056: real time    0.0056
    CHARGE:  cpu time    5.7645: real time    5.7722
    MIXING:  cpu time    1.0521: real time    1.0588
    --------------------------------------------
      LOOP:  cpu time   73.5250: real time   73.6251

 eigenvalue-minimisations  :    32
 total energy-change (2. order) : 0.2821968E+01  (-0.1571559E+01)
 number of electron      24.0000000 magnetization 
 augmentation part        0.1398508 magnetization 

 Broyden mixing:
  rms(total) = 0.27713E+01    rms(broyden)= 0.27713E+01
  rms(prec ) = 0.27728E+01
  weight for this iteration     100.00

 eigenvalues of (default mixing * dielectric matrix)
  average eigenvalue GAMMA=   1.8277
  1.8277

 Free energy of the ion-electron system (eV)
  ---------------------------------------------------
  alpha Z        PSCENC =         0.03650749
  Ewald energy   TEWEN  =      1224.20150596
  -Hartree energ DENC   =     -2427.13338925
  -exchange      EXHF   =         0.00000000
  -V(xc)+E(xc)   XCENC  =        91.75543316
  PAW double counting   =      4072.18131963    -4071.25573110
  entropy T*S    EENTRO =        -0.00000000
  eigenvalues    EBANDS =      -396.77267727
  atomic energy  EATOM  =      1469.26374278
  Solvation  Ediel_sol  =         0.00000000
  ---------------------------------------------------
  free energy    TOTEN  =       -37.72328860 eV

  energy without entropy =      -37.72328860  energy(sigma->0) =      -37.72328860


--------------------------------------------------------------------------------------------------------




--------------------------------------- Iteration      1(   7)  ---------------------------------------


    POTLOK:  cpu time   47.3003: real time   47.3582
    SETDIJ:  cpu time    0.0572: real time    0.0572
     EDDAV:  cpu time   29.1691: real time   29.2133
       DOS:  cpu time    0.0062: real time    0.0062
    CHARGE:  cpu time    5.8645: real time    5.8722
    MIXING:  cpu time    1.2129: real time    1.2143
    --------------------------------------------
      LOOP:  cpu time   83.6102: real time   83.7214

 eigenvalue-minimisations  :    56
 total energy-change (2. order) : 0.2863512E+00  (-0.2298548E+00)
 number of electron      24.0000000 magnetization 
 augmentation part        0.1179208 magnetization 

 Broyden mixing:
  rms(total) = 0.10951E+01    rms(broyden)= 0.10951E+01
  rms(prec ) = 0.10960E+01
  weight for this iteration     100.00

 eigenvalues of (default mixing * dielectric matrix)
  average eigenvalue GAMMA=   1.8763
  1.0074  2.7452

 Free energy of the ion-electron system (eV)
  ---------------------------------------------------
  alpha Z        PSCENC =         0.03650749
  Ewald energy   TEWEN  =      1224.20150596
  -Hartree energ DENC   =     -2450.18772079
  -exchange      EXHF   =         0.00000000
  -V(xc)+E(xc)   XCENC  =        93.03478696
  PAW double counting   =     11400.85924071   -11400.13259538
  entropy T*S    EENTRO =        -0.00000000
  eigenvalues    EBANDS =      -374.51240515
  atomic energy  EATOM  =      1469.26374278
  Solvation  Ediel_sol  =         0.00000000
  ---------------------------------------------------
  free energy    TOTEN  =       -37.43693742 eV

  energy without entropy =      -37.43693742  energy(sigma->0) =      -37.43693742


--------------------------------------------------------------------------------------------------------




--------------------------------------- Iteration      1(   8)  ---------------------------------------


    POTLOK:  cpu time   47.4610: real time   47.5186
    SETDIJ:  cpu time    0.0488: real time    0.0488
     EDDAV:  cpu time   29.1084: real time   29.1521
       DOS:  cpu time    0.0063: real time    0.0063
    CHARGE:  cpu time    5.8024: real time    5.8112
    MIXING:  cpu time    1.3379: real time    1.3394
    --------------------------------------------
      LOOP:  cpu time   83.7648: real time   83.8765

 eigenvalue-minimisations  :    56
 total energy-change (2. order) : 0.8912828E-01  (-0.5287142E-01)
 number of electron      24.0000000 magnetization 
 augmentation part        0.1363478 magnetization 

 Broyden mixing:
  rms(total) = 0.39669E+00    rms(broyden)= 0.39669E+00
  rms(prec ) = 0.39722E+00
  weight for this iteration     100.00

 eigenvalues of (default mixing * dielectric matrix)
  average eigenvalue GAMMA=   1.5077
  2.4748  1.0242  1.0242

 Free energy of the ion-electron system (eV)
  ---------------------------------------------------
  alpha Z        PSCENC =         0.03650749
  Ewald energy   TEWEN  =      1224.20150596
  -Hartree energ DENC   =     -2451.98888329
  -exchange      EXHF   =         0.00000000
  -V(xc)+E(xc)   XCENC  =        93.11113823
  PAW double counting   =     16803.68228788   -16802.87591577
  entropy T*S    EENTRO =        -0.00000000
  eigenvalues    EBANDS =      -372.77819243
  atomic energy  EATOM  =      1469.26374278
  Solvation  Ediel_sol  =         0.00000000
  ---------------------------------------------------
  free energy    TOTEN  =       -37.34780914 eV

  energy without entropy =      -37.34780914  energy(sigma->0) =      -37.34780914


--------------------------------------------------------------------------------------------------------




--------------------------------------- Iteration      1(   9)  ---------------------------------------


    POTLOK:  cpu time   47.6116: real time   47.6693
    SETDIJ:  cpu time    0.0627: real time    0.0627
     EDDAV:  cpu time   29.2125: real time   29.2558
       DOS:  cpu time    0.0063: real time    0.0062
    CHARGE:  cpu time    5.8342: real time    5.8421
    MIXING:  cpu time    1.1794: real time    1.1808
    --------------------------------------------
      LOOP:  cpu time   83.9066: real time   84.0170

 eigenvalue-minimisations  :    56
 total energy-change (2. order) : 0.9239347E-03  (-0.1044897E-01)
 number of electron      24.0000000 magnetization 
 augmentation part        0.1269591 magnetization 

 Broyden mixing:
  rms(total) = 0.18362E+00    rms(broyden)= 0.18362E+00
  rms(prec ) = 0.18428E+00
  weight for this iteration     100.00

 eigenvalues of (default mixing * dielectric matrix)
  average eigenvalue GAMMA=   1.2315
  2.5296  1.0464  1.0464  0.3034

 Free energy of the ion-electron system (eV)
  ---------------------------------------------------
  alpha Z        PSCENC =         0.03650749
  Ewald energy   TEWEN  =      1224.20150596
  -Hartree energ DENC   =     -2452.66761694
  -exchange      EXHF   =         0.00000000
  -V(xc)+E(xc)   XCENC  =        93.14554025
  PAW double counting   =     15522.22453060   -15521.45351825
  entropy T*S    EENTRO =        -0.00000000
  eigenvalues    EBANDS =      -372.09757710
  atomic energy  EATOM  =      1469.26374278
  Solvation  Ediel_sol  =         0.00000000
  ---------------------------------------------------
  free energy    TOTEN  =       -37.34688521 eV

  energy without entropy =      -37.34688521  energy(sigma->0) =      -37.34688521


--------------------------------------------------------------------------------------------------------




--------------------------------------- Iteration      1(  10)  ---------------------------------------


    POTLOK:  cpu time   47.6105: real time   47.6678
    SETDIJ:  cpu time    0.0547: real time    0.0547
     EDDAV:  cpu time   25.9159: real time   25.9560
       DOS:  cpu time    0.0043: real time    0.0043
    CHARGE:  cpu time    5.7873: real time    5.7971
    MIXING:  cpu time    1.5112: real time    1.5129
    --------------------------------------------
      LOOP:  cpu time   80.8839: real time   80.9928

 eigenvalue-minimisations  :    48
 total energy-change (2. order) : 0.5602813E-03  (-0.2235516E-03)
 number of electron      24.0000000 magnetization 
 augmentation part        0.1276980 magnetization 

 Broyden mixing:
  rms(total) = 0.12567E+00    rms(broyden)= 0.12567E+00
  rms(prec ) = 0.12648E+00
  weight for this iteration     100.00

 eigenvalues of (default mixing * dielectric matrix)
  average eigenvalue GAMMA=   1.4055
  2.2331  2.2331  0.9662  0.9662  0.6286

 Free energy of the ion-electron system (eV)
  ---------------------------------------------------
  alpha Z        PSCENC =         0.03650749
  Ewald energy   TEWEN  =      1224.20150596
  -Hartree energ DENC   =     -2452.78553925
  -exchange      EXHF   =         0.00000000
  -V(xc)+E(xc)   XCENC  =        93.14678349
  PAW double counting   =     15656.85991243   -15656.08574369
  entropy T*S    EENTRO =        -0.00000000
  eigenvalues    EBANDS =      -371.98349413
  atomic energy  EATOM  =      1469.26374278
  Solvation  Ediel_sol  =         0.00000000
  ---------------------------------------------------
  free energy    TOTEN  =       -37.34632493 eV

  energy without entropy =      -37.34632493  energy(sigma->0) =      -37.34632493


--------------------------------------------------------------------------------------------------------




--------------------------------------- Iteration      1(  11)  ---------------------------------------


    POTLOK:  cpu time   47.8503: real time   47.9071
    SETDIJ:  cpu time    0.0502: real time    0.0502
     EDDAV:  cpu time   25.9155: real time   25.9540
       DOS:  cpu time    0.0002: real time    0.0002
    CHARGE:  cpu time    5.7948: real time    5.8028
    MIXING:  cpu time    1.6058: real time    1.6075
    --------------------------------------------
      LOOP:  cpu time   81.2168: real time   81.3219

 eigenvalue-minimisations  :    48
 total energy-change (2. order) :-0.3095159E-02  (-0.1404458E-02)
 number of electron      24.0000000 magnetization 
 augmentation part        0.1303752 magnetization 

 Broyden mixing:
  rms(total) = 0.61363E-01    rms(broyden)= 0.61363E-01
  rms(prec ) = 0.62025E-01
  weight for this iteration     100.00

 eigenvalues of (default mixing * dielectric matrix)
  average eigenvalue GAMMA=   1.3790
  2.4622  2.4622  1.1453  0.8414  0.8414  0.5217

 Free energy of the ion-electron system (eV)
  ---------------------------------------------------
  alpha Z        PSCENC =         0.03650749
  Ewald energy   TEWEN  =      1224.20150596
  -Hartree energ DENC   =     -2452.17538454
  -exchange      EXHF   =         0.00000000
  -V(xc)+E(xc)   XCENC  =        93.08146839
  PAW double counting   =     15389.08594550   -15388.29319853
  entropy T*S    EENTRO =        -0.00000000
  eigenvalues    EBANDS =      -372.55000714
  atomic energy  EATOM  =      1469.26374278
  Solvation  Ediel_sol  =         0.00000000
  ---------------------------------------------------
  free energy    TOTEN  =       -37.34942009 eV

  energy without entropy =      -37.34942009  energy(sigma->0) =      -37.34942009


--------------------------------------------------------------------------------------------------------




--------------------------------------- Iteration      1(  12)  ---------------------------------------


    POTLOK:  cpu time   47.5789: real time   47.6362
    SETDIJ:  cpu time    0.0598: real time    0.0598
     EDDAV:  cpu time   25.9870: real time   26.0264
       DOS:  cpu time    0.0059: real time    0.0059
    CHARGE:  cpu time    5.8561: real time    5.8640
    MIXING:  cpu time    1.5383: real time    1.5400
    --------------------------------------------
      LOOP:  cpu time   81.0261: real time   81.1324

 eigenvalue-minimisations  :    48
 total energy-change (2. order) :-0.1804242E-02  (-0.1920962E-03)
 number of electron      24.0000000 magnetization 
 augmentation part        0.1297219 magnetization 

 Broyden mixing:
  rms(total) = 0.28881E-01    rms(broyden)= 0.28881E-01
  rms(prec ) = 0.29699E-01
  weight for this iteration     100.00

 eigenvalues of (default mixing * dielectric matrix)
  average eigenvalue GAMMA=   1.3807
  2.5346  2.5346  1.3765  0.9371  0.9371  0.6723  0.6723

 Free energy of the ion-electron system (eV)
  ---------------------------------------------------
  alpha Z        PSCENC =         0.03650749
  Ewald energy   TEWEN  =      1224.20150596
  -Hartree energ DENC   =     -2452.77574692
  -exchange      EXHF   =         0.00000000
  -V(xc)+E(xc)   XCENC  =        93.10282888
  PAW double counting   =     15479.17972250   -15478.38977812
  entropy T*S    EENTRO =        -0.00000000
  eigenvalues    EBANDS =      -371.97000690
  atomic energy  EATOM  =      1469.26374278
  Solvation  Ediel_sol  =         0.00000000
  ---------------------------------------------------
  free energy    TOTEN  =       -37.35122433 eV

  energy without entropy =      -37.35122433  energy(sigma->0) =      -37.35122433


--------------------------------------------------------------------------------------------------------




--------------------------------------- Iteration      1(  13)  ---------------------------------------


    POTLOK:  cpu time   47.7999: real time   47.8558
    SETDIJ:  cpu time    0.0617: real time    0.0617
     EDDAV:  cpu time   26.0427: real time   26.0820
       DOS:  cpu time    0.0074: real time    0.0074
    CHARGE:  cpu time    5.8743: real time    5.8822
    MIXING:  cpu time    1.6340: real time    1.6358
    --------------------------------------------
      LOOP:  cpu time   81.4201: real time   81.5249

 eigenvalue-minimisations  :    48
 total energy-change (2. order) :-0.3219078E-02  (-0.6863778E-04)
 number of electron      24.0000000 magnetization 
 augmentation part        0.1295940 magnetization 

 Broyden mixing:
  rms(total) = 0.16311E-01    rms(broyden)= 0.16311E-01
  rms(prec ) = 0.17192E-01
  weight for this iteration     100.00

 eigenvalues of (default mixing * dielectric matrix)
  average eigenvalue GAMMA=   1.3945
  3.0711  2.3095  1.5914  1.0333  1.0333  0.7709  0.7709  0.5757

 Free energy of the ion-electron system (eV)
  ---------------------------------------------------
  alpha Z        PSCENC =         0.03650749
  Ewald energy   TEWEN  =      1224.20150596
  -Hartree energ DENC   =     -2453.05246173
  -exchange      EXHF   =         0.00000000
  -V(xc)+E(xc)   XCENC  =        93.10586570
  PAW double counting   =     15495.48909353   -15494.69786254
  entropy T*S    EENTRO =        -0.00000000
  eigenvalues    EBANDS =      -371.70083460
  atomic energy  EATOM  =      1469.26374278
  Solvation  Ediel_sol  =         0.00000000
  ---------------------------------------------------
  free energy    TOTEN  =       -37.35444341 eV

  energy without entropy =      -37.35444341  energy(sigma->0) =      -37.35444341


--------------------------------------------------------------------------------------------------------




--------------------------------------- Iteration      1(  14)  ---------------------------------------


    POTLOK:  cpu time   47.7292: real time   47.7852
    SETDIJ:  cpu time    0.0519: real time    0.0519
     EDDAV:  cpu time   26.0603: real time   26.0990
       DOS:  cpu time    0.0002: real time    0.0002
    CHARGE:  cpu time    5.8372: real time    5.8454
    MIXING:  cpu time    1.5001: real time    1.5019
    --------------------------------------------
      LOOP:  cpu time   81.1790: real time   81.2836

 eigenvalue-minimisations  :    48
 total energy-change (2. order) :-0.3189278E-02  (-0.5246234E-04)
 number of electron      24.0000000 magnetization 
 augmentation part        0.1294724 magnetization 

 Broyden mixing:
  rms(total) = 0.53103E-02    rms(broyden)= 0.53103E-02
  rms(prec ) = 0.66599E-02
  weight for this iteration     100.00

 eigenvalues of (default mixing * dielectric matrix)
  average eigenvalue GAMMA=   1.5598
  3.8222  2.2973  2.2973  1.4479  0.9955  0.9955  0.7917  0.7917  0.5987

 Free energy of the ion-electron system (eV)
  ---------------------------------------------------
  alpha Z        PSCENC =         0.03650749
  Ewald energy   TEWEN  =      1224.20150596
  -Hartree energ DENC   =     -2453.30641499
  -exchange      EXHF   =         0.00000000
  -V(xc)+E(xc)   XCENC  =        93.10843339
  PAW double counting   =     15532.40399455   -15531.61122299
  entropy T*S    EENTRO =        -0.00000000
  eigenvalues    EBANDS =      -371.45417886
  atomic energy  EATOM  =      1469.26374278
  Solvation  Ediel_sol  =         0.00000000
  ---------------------------------------------------
  free energy    TOTEN  =       -37.35763268 eV

  energy without entropy =      -37.35763268  energy(sigma->0) =      -37.35763268


--------------------------------------------------------------------------------------------------------




--------------------------------------- Iteration      1(  15)  ---------------------------------------


    POTLOK:  cpu time   47.6917: real time   47.7477
    SETDIJ:  cpu time    0.0492: real time    0.0492
     EDDAV:  cpu time   22.8637: real time   22.8978
       DOS:  cpu time    0.0060: real time    0.0060
    CHARGE:  cpu time    5.8314: real time    5.8395
    MIXING:  cpu time    1.2828: real time    1.2846
    --------------------------------------------
      LOOP:  cpu time   77.7248: real time   77.8248

 eigenvalue-minimisations  :    40
 total energy-change (2. order) :-0.4736782E-02  (-0.9332877E-04)
 number of electron      24.0000000 magnetization 
 augmentation part        0.1294542 magnetization 

 Broyden mixing:
  rms(total) = 0.33131E-02    rms(broyden)= 0.33131E-02
  rms(prec ) = 0.40159E-02
  weight for this iteration     100.00

 eigenvalues of (default mixing * dielectric matrix)
  average eigenvalue GAMMA=   1.5720
  4.3918  2.3824  2.3824  1.2809  1.2809  0.9247  0.9247  0.7775  0.7775  0.5974

 Free energy of the ion-electron system (eV)
  ---------------------------------------------------
  alpha Z        PSCENC =         0.03650749
  Ewald energy   TEWEN  =      1224.20150596
  -Hartree energ DENC   =     -2453.50089479
  -exchange      EXHF   =         0.00000000
  -V(xc)+E(xc)   XCENC  =        93.10414578
  PAW double counting   =     15552.25217033   -15551.45630045
  entropy T*S    EENTRO =        -0.00000000
  eigenvalues    EBANDS =      -371.26324657
  atomic energy  EATOM  =      1469.26374278
  Solvation  Ediel_sol  =         0.00000000
  ---------------------------------------------------
  free energy    TOTEN  =       -37.36236947 eV

  energy without entropy =      -37.36236947  energy(sigma->0) =      -37.36236947


--------------------------------------------------------------------------------------------------------




--------------------------------------- Iteration      1(  16)  ---------------------------------------


    POTLOK:  cpu time   47.8625: real time   47.9180
    SETDIJ:  cpu time    0.0544: real time    0.0544
     EDDAV:  cpu time   29.2841: real time   29.3276
       DOS:  cpu time    0.0056: real time    0.0056
    CHARGE:  cpu time    5.8777: real time    5.8857
    MIXING:  cpu time    1.6476: real time    1.6496
    --------------------------------------------
      LOOP:  cpu time   84.7321: real time   84.8409

 eigenvalue-minimisations  :    56
 total energy-change (2. order) :-0.2092475E-02  (-0.2968699E-04)
 number of electron      24.0000000 magnetization 
 augmentation part        0.1292550 magnetization 

 Broyden mixing:
  rms(total) = 0.48906E-02    rms(broyden)= 0.48906E-02
  rms(prec ) = 0.51311E-02
  weight for this iteration     100.00

 eigenvalues of (default mixing * dielectric matrix)
  average eigenvalue GAMMA=   1.5758
  4.7146  2.2894  2.2894  2.1915  1.0958  0.9782  0.9782  0.7482  0.7482  0.5910
  0.7093

 Free energy of the ion-electron system (eV)
  ---------------------------------------------------
  alpha Z        PSCENC =         0.03650749
  Ewald energy   TEWEN  =      1224.20150596
  -Hartree energ DENC   =     -2453.63366585
  -exchange      EXHF   =         0.00000000
  -V(xc)+E(xc)   XCENC  =        93.10577070
  PAW double counting   =     15570.61400894   -15569.81831955
  entropy T*S    EENTRO =        -0.00000000
  eigenvalues    EBANDS =      -371.13401241
  atomic energy  EATOM  =      1469.26374278
  Solvation  Ediel_sol  =         0.00000000
  ---------------------------------------------------
  free energy    TOTEN  =       -37.36446194 eV

  energy without entropy =      -37.36446194  energy(sigma->0) =      -37.36446194


--------------------------------------------------------------------------------------------------------




--------------------------------------- Iteration      1(  17)  ---------------------------------------


    POTLOK:  cpu time   47.8013: real time   47.8593
    SETDIJ:  cpu time    0.0545: real time    0.0545
     EDDAV:  cpu time   22.7593: real time   22.7930
       DOS:  cpu time    0.0059: real time    0.0059
    CHARGE:  cpu time    5.8410: real time    5.8490
    MIXING:  cpu time    1.5155: real time    1.5174
    --------------------------------------------
      LOOP:  cpu time   77.9775: real time   78.0790

 eigenvalue-minimisations  :    40
 total energy-change (2. order) :-0.1458703E-02  (-0.8903349E-05)
 number of electron      24.0000000 magnetization 
 augmentation part        0.1292844 magnetization 

 Broyden mixing:
  rms(total) = 0.35444E-02    rms(broyden)= 0.35444E-02
  rms(prec ) = 0.37041E-02
  weight for this iteration     100.00

 eigenvalues of (default mixing * dielectric matrix)
  average eigenvalue GAMMA=   1.7738
  5.8896  3.1387  2.5711  2.5711  1.3048  0.9933  0.9933  0.5968  0.8407  0.8407
  0.7727  0.7727

 Free energy of the ion-electron system (eV)
  ---------------------------------------------------
  alpha Z        PSCENC =         0.03650749
  Ewald energy   TEWEN  =      1224.20150596
  -Hartree energ DENC   =     -2453.63663036
  -exchange      EXHF   =         0.00000000
  -V(xc)+E(xc)   XCENC  =        93.10250105
  PAW double counting   =     15566.14106814   -15565.34492565
  entropy T*S    EENTRO =        -0.00000000
  eigenvalues    EBANDS =      -371.12969005
  atomic energy  EATOM  =      1469.26374278
  Solvation  Ediel_sol  =         0.00000000
  ---------------------------------------------------
  free energy    TOTEN  =       -37.36592064 eV

  energy without entropy =      -37.36592064  energy(sigma->0) =      -37.36592064


--------------------------------------------------------------------------------------------------------




--------------------------------------- Iteration      1(  18)  ---------------------------------------


    POTLOK:  cpu time   47.8677: real time   47.9241
    SETDIJ:  cpu time    0.0490: real time    0.0490
     EDDAV:  cpu time   25.9896: real time   26.0283
       DOS:  cpu time    0.0063: real time    0.0063
    CHARGE:  cpu time    5.8998: real time    5.9076
    MIXING:  cpu time    1.8381: real time    1.8402
    --------------------------------------------
      LOOP:  cpu time   81.6505: real time   81.7556

 eigenvalue-minimisations  :    48
 total energy-change (2. order) :-0.1641570E-02  (-0.1667799E-04)
 number of electron      24.0000000 magnetization 
 augmentation part        0.1292564 magnetization 

 Broyden mixing:
  rms(total) = 0.29423E-02    rms(broyden)= 0.29423E-02
  rms(prec ) = 0.29877E-02
  weight for this iteration     100.00

 eigenvalues of (default mixing * dielectric matrix)
  average eigenvalue GAMMA=   1.7143
  6.3499  3.0500  2.3829  2.3829  1.3115  1.0602  1.0602  0.8832  0.8832  0.7791
  0.7791  0.5942  0.7699

 Free energy of the ion-electron system (eV)
  ---------------------------------------------------
  alpha Z        PSCENC =         0.03650749
  Ewald energy   TEWEN  =      1224.20150596
  -Hartree energ DENC   =     -2453.66435093
  -exchange      EXHF   =         0.00000000
  -V(xc)+E(xc)   XCENC  =        93.10045666
  PAW double counting   =     15564.13357992   -15563.33765553
  entropy T*S    EENTRO =        -0.00000000
  eigenvalues    EBANDS =      -371.10134856
  atomic energy  EATOM  =      1469.26374278
  Solvation  Ediel_sol  =         0.00000000
  ---------------------------------------------------
  free energy    TOTEN  =       -37.36756221 eV

  energy without entropy =      -37.36756221  energy(sigma->0) =      -37.36756221


--------------------------------------------------------------------------------------------------------




--------------------------------------- Iteration      1(  19)  ---------------------------------------


    POTLOK:  cpu time   47.4770: real time   47.5329
    SETDIJ:  cpu time    0.0490: real time    0.0490
     EDDAV:  cpu time   26.0964: real time   26.1354
       DOS:  cpu time    0.0081: real time    0.0081
    CHARGE:  cpu time    5.8171: real time    5.8252
    MIXING:  cpu time    1.6112: real time    1.6134
    --------------------------------------------
      LOOP:  cpu time   81.0588: real time   81.1640

 eigenvalue-minimisations  :    48
 total energy-change (2. order) :-0.1094721E-03  (-0.3339201E-06)
 number of electron      24.0000000 magnetization 
 augmentation part        0.1292782 magnetization 

 Broyden mixing:
  rms(total) = 0.22351E-02    rms(broyden)= 0.22351E-02
  rms(prec ) = 0.22838E-02
  weight for this iteration     100.00

 eigenvalues of (default mixing * dielectric matrix)
  average eigenvalue GAMMA=   1.8008
  7.4314  3.2396  2.5113  2.5113  1.7789  1.2621  1.0422  1.0422  0.8029  0.8029
  0.7942  0.5988  0.6971  0.6971

 Free energy of the ion-electron system (eV)
  ---------------------------------------------------
  alpha Z        PSCENC =         0.03650749
  Ewald energy   TEWEN  =      1224.20150596
  -Hartree energ DENC   =     -2453.66178255
  -exchange      EXHF   =         0.00000000
  -V(xc)+E(xc)   XCENC  =        93.09988647
  PAW double counting   =     15563.87433451   -15563.07817605
  entropy T*S    EENTRO =        -0.00000000
  eigenvalues    EBANDS =      -371.10369030
  atomic energy  EATOM  =      1469.26374278
  Solvation  Ediel_sol  =         0.00000000
  ---------------------------------------------------
  free energy    TOTEN  =       -37.36767169 eV

  energy without entropy =      -37.36767169  energy(sigma->0) =      -37.36767169


--------------------------------------------------------------------------------------------------------




--------------------------------------- Iteration      1(  20)  ---------------------------------------


    POTLOK:  cpu time   47.7894: real time   47.8466
    SETDIJ:  cpu time    0.0563: real time    0.0564
     EDDAV:  cpu time   22.7189: real time   22.7530
       DOS:  cpu time    0.0056: real time    0.0056
    CHARGE:  cpu time    5.8561: real time    5.8642
    MIXING:  cpu time    1.4897: real time    1.4919
    --------------------------------------------
      LOOP:  cpu time   77.9161: real time   78.0176

 eigenvalue-minimisations  :    40
 total energy-change (2. order) :-0.6533833E-03  (-0.2885446E-05)
 number of electron      24.0000000 magnetization 
 augmentation part        0.1292949 magnetization 

 Broyden mixing:
  rms(total) = 0.15026E-02    rms(broyden)= 0.15026E-02
  rms(prec ) = 0.15212E-02
  weight for this iteration     100.00

 eigenvalues of (default mixing * dielectric matrix)
  average eigenvalue GAMMA=   1.8084
  7.8041  3.2680  2.5439  2.5439  2.4595  1.3366  1.0507  1.0507  0.8404  0.8404
  0.5939  0.7218  0.7218  0.6751  0.6751

 Free energy of the ion-electron system (eV)
  ---------------------------------------------------
  alpha Z        PSCENC =         0.03650749
  Ewald energy   TEWEN  =      1224.20150596
  -Hartree energ DENC   =     -2453.65975194
  -exchange      EXHF   =         0.00000000
  -V(xc)+E(xc)   XCENC  =        93.09867400
  PAW double counting   =     15559.61611563   -15558.82002676
  entropy T*S    EENTRO =        -0.00000000
  eigenvalues    EBANDS =      -371.10509222
  atomic energy  EATOM  =      1469.26374278
  Solvation  Ediel_sol  =         0.00000000
  ---------------------------------------------------
  free energy    TOTEN  =       -37.36832507 eV

  energy without entropy =      -37.36832507  energy(sigma->0) =      -37.36832507


--------------------------------------------------------------------------------------------------------




--------------------------------------- Iteration      1(  21)  ---------------------------------------


    POTLOK:  cpu time   47.5361: real time   47.5922
    SETDIJ:  cpu time    0.0582: real time    0.0583
     EDDAV:  cpu time   29.3300: real time   29.3737
       DOS:  cpu time    0.0076: real time    0.0076
    CHARGE:  cpu time    5.8527: real time    5.8610
    MIXING:  cpu time    1.7016: real time    1.7040
    --------------------------------------------
      LOOP:  cpu time   84.4863: real time   84.5967

 eigenvalue-minimisations  :    56
 total energy-change (2. order) :-0.2147311E-03  (-0.3574907E-06)
 number of electron      24.0000000 magnetization 
 augmentation part        0.1292910 magnetization 

 Broyden mixing:
  rms(total) = 0.58669E-03    rms(broyden)= 0.58669E-03
  rms(prec ) = 0.60799E-03
  weight for this iteration     100.00

 eigenvalues of (default mixing * dielectric matrix)
  average eigenvalue GAMMA=   1.9228
  8.4439  4.8108  2.8901  2.4298  2.4298  1.3757  1.1427  1.1427  0.8963  0.8963
  0.8724  0.5965  0.7357  0.7357  0.6832  0.6832

 Free energy of the ion-electron system (eV)
  ---------------------------------------------------
  alpha Z        PSCENC =         0.03650749
  Ewald energy   TEWEN  =      1224.20150596
  -Hartree energ DENC   =     -2453.65579820
  -exchange      EXHF   =         0.00000000
  -V(xc)+E(xc)   XCENC  =        93.09829306
  PAW double counting   =     15556.90200612   -15556.10591094
  entropy T*S    EENTRO =        -0.00000000
  eigenvalues    EBANDS =      -371.10888607
  atomic energy  EATOM  =      1469.26374278
  Solvation  Ediel_sol  =         0.00000000
  ---------------------------------------------------
  free energy    TOTEN  =       -37.36853980 eV

  energy without entropy =      -37.36853980  energy(sigma->0) =      -37.36853980


--------------------------------------------------------------------------------------------------------




--------------------------------------- Iteration      1(  22)  ---------------------------------------


    POTLOK:  cpu time   47.6078: real time   47.6636
    SETDIJ:  cpu time    0.0488: real time    0.0488
     EDDAV:  cpu time   22.7674: real time   22.8018
       DOS:  cpu time    0.0060: real time    0.0060
    CHARGE:  cpu time    5.8496: real time    5.8576
    MIXING:  cpu time    1.7424: real time    1.7449
    --------------------------------------------
      LOOP:  cpu time   78.0220: real time   78.1227

 eigenvalue-minimisations  :    40
 total energy-change (2. order) :-0.1831808E-03  (-0.5299001E-06)
 number of electron      24.0000000 magnetization 
 augmentation part        0.1292890 magnetization 

 Broyden mixing:
  rms(total) = 0.70302E-03    rms(broyden)= 0.70302E-03
  rms(prec ) = 0.70824E-03
  weight for this iteration     100.00

 eigenvalues of (default mixing * dielectric matrix)
  average eigenvalue GAMMA=   1.8811
  8.6059  4.6671  2.7536  2.4000  2.4000  1.6379  1.3704  1.1550  0.9023  0.9023
  0.8450  0.8450  0.5967  0.7651  0.7651  0.6840  0.6840

 Free energy of the ion-electron system (eV)
  ---------------------------------------------------
  alpha Z        PSCENC =         0.03650749
  Ewald energy   TEWEN  =      1224.20150596
  -Hartree energ DENC   =     -2453.64716541
  -exchange      EXHF   =         0.00000000
  -V(xc)+E(xc)   XCENC  =        93.09786118
  PAW double counting   =     15553.77026277   -15552.97425250
  entropy T*S    EENTRO =        -0.00000000
  eigenvalues    EBANDS =      -371.11718525
  atomic energy  EATOM  =      1469.26374278
  Solvation  Ediel_sol  =         0.00000000
  ---------------------------------------------------
  free energy    TOTEN  =       -37.36872298 eV

  energy without entropy =      -37.36872298  energy(sigma->0) =      -37.36872298


--------------------------------------------------------------------------------------------------------




--------------------------------------- Iteration      1(  23)  ---------------------------------------


    POTLOK:  cpu time   47.6532: real time   47.7088
    SETDIJ:  cpu time    0.0488: real time    0.0488
     EDDAV:  cpu time   22.9924: real time   23.0268
       DOS:  cpu time    0.0070: real time    0.0070
    CHARGE:  cpu time    5.8280: real time    5.8363
    MIXING:  cpu time    1.7672: real time    1.7697
    --------------------------------------------
      LOOP:  cpu time   78.2966: real time   78.3973

 eigenvalue-minimisations  :    40
 total energy-change (2. order) :-0.4556647E-04  (-0.2608098E-07)
 number of electron      24.0000000 magnetization 
 augmentation part        0.1292841 magnetization 

 Broyden mixing:
  rms(total) = 0.40184E-03    rms(broyden)= 0.40184E-03
  rms(prec ) = 0.40707E-03
  weight for this iteration     100.00

 eigenvalues of (default mixing * dielectric matrix)
  average eigenvalue GAMMA=   1.9212
  8.6374  5.2232  3.0802  2.4648  2.4648  1.9576  1.4502  1.1711  1.1711  0.9041
  0.9041  0.8713  0.8713  0.5964  0.7504  0.7504  0.6565  0.6565

 Free energy of the ion-electron system (eV)
  ---------------------------------------------------
  alpha Z        PSCENC =         0.03650749
  Ewald energy   TEWEN  =      1224.20150596
  -Hartree energ DENC   =     -2453.64872024
  -exchange      EXHF   =         0.00000000
  -V(xc)+E(xc)   XCENC  =        93.09789068
  PAW double counting   =     15554.97807423   -15554.18205263
  entropy T*S    EENTRO =        -0.00000000
  eigenvalues    EBANDS =      -371.11571681
  atomic energy  EATOM  =      1469.26374278
  Solvation  Ediel_sol  =         0.00000000
  ---------------------------------------------------
  free energy    TOTEN  =       -37.36876855 eV

  energy without entropy =      -37.36876855  energy(sigma->0) =      -37.36876855


--------------------------------------------------------------------------------------------------------




--------------------------------------- Iteration      1(  24)  ---------------------------------------


    POTLOK:  cpu time   47.4988: real time   47.5550
    SETDIJ:  cpu time    0.0560: real time    0.0560
     EDDAV:  cpu time   22.8035: real time   22.8381
       DOS:  cpu time    0.0047: real time    0.0047
    CHARGE:  cpu time    5.8767: real time    5.8849
    MIXING:  cpu time    1.7471: real time    1.7496
    --------------------------------------------
      LOOP:  cpu time   77.9868: real time   78.0884

 eigenvalue-minimisations  :    40
 total energy-change (2. order) :-0.6898034E-04  (-0.7499147E-07)
 number of electron      24.0000000 magnetization 
 augmentation part        0.1292817 magnetization 

 Broyden mixing:
  rms(total) = 0.40122E-03    rms(broyden)= 0.40122E-03
  rms(prec ) = 0.40262E-03
  weight for this iteration     100.00

 eigenvalues of (default mixing * dielectric matrix)
  average eigenvalue GAMMA=   2.0083
  8.8197  5.4276  3.4762  2.8743  2.8743  2.1708  2.1009  1.2760  1.2760  0.9570
  0.9570  0.8556  0.8556  0.8524  0.5966  0.7327  0.7327  0.6610  0.6610

 Free energy of the ion-electron system (eV)
  ---------------------------------------------------
  alpha Z        PSCENC =         0.03650749
  Ewald energy   TEWEN  =      1224.20150596
  -Hartree energ DENC   =     -2453.64784494
  -exchange      EXHF   =         0.00000000
  -V(xc)+E(xc)   XCENC  =        93.09781778
  PAW double counting   =     15555.08482894   -15554.28879469
  entropy T*S    EENTRO =        -0.00000000
  eigenvalues    EBANDS =      -371.11660085
  atomic energy  EATOM  =      1469.26374278
  Solvation  Ediel_sol  =         0.00000000
  ---------------------------------------------------
  free energy    TOTEN  =       -37.36883753 eV

  energy without entropy =      -37.36883753  energy(sigma->0) =      -37.36883753


--------------------------------------------------------------------------------------------------------




--------------------------------------- Iteration      1(  25)  ---------------------------------------


    POTLOK:  cpu time   47.2271: real time   47.2844
    SETDIJ:  cpu time    0.0617: real time    0.0617
     EDDAV:  cpu time   22.8809: real time   22.9160
       DOS:  cpu time    0.0060: real time    0.0060
    CHARGE:  cpu time    5.7922: real time    5.8005
    MIXING:  cpu time    1.9395: real time    1.9423
    --------------------------------------------
      LOOP:  cpu time   77.9074: real time   78.0109

 eigenvalue-minimisations  :    40
 total energy-change (2. order) :-0.3459375E-04  (-0.2140495E-07)
 number of electron      24.0000000 magnetization 
 augmentation part        0.1292823 magnetization 

 Broyden mixing:
  rms(total) = 0.62877E-04    rms(broyden)= 0.62877E-04
  rms(prec ) = 0.64737E-04
  weight for this iteration     100.00

 eigenvalues of (default mixing * dielectric matrix)
  average eigenvalue GAMMA=   2.0326
  9.3341  6.2176  4.1401  2.7456  2.5542  2.3528  1.8844  1.4811  1.1267  0.9916
  0.9916  0.8562  0.8562  0.9224  0.5966  0.8057  0.7404  0.7404  0.6576  0.6576

 Free energy of the ion-electron system (eV)
  ---------------------------------------------------
  alpha Z        PSCENC =         0.03650749
  Ewald energy   TEWEN  =      1224.20150596
  -Hartree energ DENC   =     -2453.64899119
  -exchange      EXHF   =         0.00000000
  -V(xc)+E(xc)   XCENC  =        93.09783001
  PAW double counting   =     15556.21546952   -15555.41943641
  entropy T*S    EENTRO =        -0.00000000
  eigenvalues    EBANDS =      -371.11550028
  atomic energy  EATOM  =      1469.26374278
  Solvation  Ediel_sol  =         0.00000000
  ---------------------------------------------------
  free energy    TOTEN  =       -37.36887212 eV

  energy without entropy =      -37.36887212  energy(sigma->0) =      -37.36887212


--------------------------------------------------------------------------------------------------------




--------------------------------------- Iteration      1(  26)  ---------------------------------------


    POTLOK:  cpu time   47.2217: real time   47.2790
    SETDIJ:  cpu time    0.0511: real time    0.0511
     EDDAV:  cpu time   19.7560: real time   19.7859
       DOS:  cpu time    0.0059: real time    0.0059
    CHARGE:  cpu time    5.8433: real time    5.8514
    MIXING:  cpu time    2.1836: real time    2.1865
    --------------------------------------------
      LOOP:  cpu time   75.0617: real time   75.1598

 eigenvalue-minimisations  :    32
 total energy-change (2. order) :-0.5480620E-05  (-0.3199412E-08)
 number of electron      24.0000000 magnetization 
 augmentation part        0.1292829 magnetization 

 Broyden mixing:
  rms(total) = 0.65628E-04    rms(broyden)= 0.65628E-04
  rms(prec ) = 0.66564E-04
  weight for this iteration     100.00

 eigenvalues of (default mixing * dielectric matrix)
  average eigenvalue GAMMA=   2.0228
  9.3989  6.2795  4.2161  2.9085  2.6913  2.3115  2.1021  1.3303  1.1159  1.1159
  1.1645  0.9607  0.8696  0.8696  0.8764  0.8764  0.5966  0.7375  0.7375  0.6603
  0.6603

 Free energy of the ion-electron system (eV)
  ---------------------------------------------------
  alpha Z        PSCENC =         0.03650749
  Ewald energy   TEWEN  =      1224.20150596
  -Hartree energ DENC   =     -2453.64857931
  -exchange      EXHF   =         0.00000000
  -V(xc)+E(xc)   XCENC  =        93.09779990
  PAW double counting   =     15556.24461012   -15555.44856419
  entropy T*S    EENTRO =        -0.00000000
  eigenvalues    EBANDS =      -371.11590036
  atomic energy  EATOM  =      1469.26374278
  Solvation  Ediel_sol  =         0.00000000
  ---------------------------------------------------
  free energy    TOTEN  =       -37.36887760 eV

  energy without entropy =      -37.36887760  energy(sigma->0) =      -37.36887760


--------------------------------------------------------------------------------------------------------




--------------------------------------- Iteration      1(  27)  ---------------------------------------


    POTLOK:  cpu time   47.0917: real time   47.1485
    SETDIJ:  cpu time    0.0574: real time    0.0574
     EDDAV:  cpu time   22.9400: real time   22.9747
       DOS:  cpu time    0.0002: real time    0.0002
    CHARGE:  cpu time    5.8912: real time    5.8992
    MIXING:  cpu time    2.0925: real time    2.0955
    --------------------------------------------
      LOOP:  cpu time   78.0729: real time   78.1755

 eigenvalue-minimisations  :    40
 total energy-change (2. order) :-0.7176853E-05  (-0.3348100E-08)
 number of electron      24.0000000 magnetization 
 augmentation part        0.1292834 magnetization 

 Broyden mixing:
  rms(total) = 0.52412E-04    rms(broyden)= 0.52412E-04
  rms(prec ) = 0.52810E-04
  weight for this iteration     100.00

 eigenvalues of (default mixing * dielectric matrix)
  average eigenvalue GAMMA=   2.1088
  9.4902  6.8104  4.7445  3.4596  2.6237  2.6237  2.1739  2.1739  1.4801  1.0859
  1.0304  1.0304  0.8522  0.8522  0.5966  0.6591  0.6591  0.7415  0.7415  0.8947
  0.8947  0.7745

 Free energy of the ion-electron system (eV)
  ---------------------------------------------------
  alpha Z        PSCENC =         0.03650749
  Ewald energy   TEWEN  =      1224.20150596
  -Hartree energ DENC   =     -2453.64878998
  -exchange      EXHF   =         0.00000000
  -V(xc)+E(xc)   XCENC  =        93.09780326
  PAW double counting   =     15556.41547741   -15555.61943281
  entropy T*S    EENTRO =        -0.00000000
  eigenvalues    EBANDS =      -371.11569890
  atomic energy  EATOM  =      1469.26374278
  Solvation  Ediel_sol  =         0.00000000
  ---------------------------------------------------
  free energy    TOTEN  =       -37.36888478 eV

  energy without entropy =      -37.36888478  energy(sigma->0) =      -37.36888478


--------------------------------------------------------------------------------------------------------




--------------------------------------- Iteration      1(  28)  ---------------------------------------


    POTLOK:  cpu time   47.2024: real time   47.2597
    SETDIJ:  cpu time    0.0703: real time    0.0703
     EDDAV:  cpu time   16.4489: real time   16.4734
       DOS:  cpu time    0.0064: real time    0.0064
    CHARGE:  cpu time    5.7299: real time    5.7378
    MIXING:  cpu time    2.4083: real time    2.4116
    --------------------------------------------
      LOOP:  cpu time   71.8662: real time   71.9592

 eigenvalue-minimisations  :    24
 total energy-change (2. order) :-0.4388458E-05  (-0.2518505E-08)
 number of electron      24.0000000 magnetization 
 augmentation part        0.1292833 magnetization 

 Broyden mixing:
  rms(total) = 0.46422E-04    rms(broyden)= 0.46422E-04
  rms(prec ) = 0.46541E-04
  weight for this iteration     100.00

 eigenvalues of (default mixing * dielectric matrix)
  average eigenvalue GAMMA=   2.0773
  9.5310  6.9311  4.9357  3.4172  2.6250  2.6250  2.2952  2.0205  1.5080  1.1240
  0.9842  0.9842  0.9549  0.9549  0.8599  0.8599  0.8887  0.8887  0.5966  0.7368
  0.7368  0.6593  0.6593

 Free energy of the ion-electron system (eV)
  ---------------------------------------------------
  alpha Z        PSCENC =         0.03650749
  Ewald energy   TEWEN  =      1224.20150596
  -Hartree energ DENC   =     -2453.64883686
  -exchange      EXHF   =         0.00000000
  -V(xc)+E(xc)   XCENC  =        93.09780271
  PAW double counting   =     15556.41657643   -15555.62052788
  entropy T*S    EENTRO =        -0.00000000
  eigenvalues    EBANDS =      -371.11565979
  atomic energy  EATOM  =      1469.26374278
  Solvation  Ediel_sol  =         0.00000000
  ---------------------------------------------------
  free energy    TOTEN  =       -37.36888917 eV

  energy without entropy =      -37.36888917  energy(sigma->0) =      -37.36888917


[...]
       DOS:  cpu time    0.0073: real time    0.0073
    CHARGE:  cpu time    5.8071: real time    5.8165
    MIXING:  cpu time    2.9343: real time    2.9379
    --------------------------------------------
      LOOP:  cpu time   75.9297: real time   76.0296

 eigenvalue-minimisations  :    32
 total energy-change (2. order) :-0.9119431E-06  (-0.1156717E-08)
 number of electron      24.0000000 magnetization 
 augmentation part        0.1292833 magnetization 

 Broyden mixing:
  rms(total) = 0.24275E-04    rms(broyden)= 0.24275E-04
  rms(prec ) = 0.24329E-04
  weight for this iteration     100.00

 eigenvalues of (default mixing * dielectric matrix)
  average eigenvalue GAMMA=   2.0812
  9.6350  7.1865  5.3208  3.6058  2.9603  2.3788  2.3788  2.2371  1.6317  1.6317
  1.2998  1.1163  1.1163  0.5966  0.6593  0.6593  0.9490  0.9490  0.8567  0.8567
  0.7379  0.7379  0.8495  0.8495  0.8291

 Free energy of the ion-electron system (eV)
  ---------------------------------------------------
  alpha Z        PSCENC =         0.03650749
  Ewald energy   TEWEN  =      1224.20150596
  -Hartree energ DENC   =     -2453.64879176
  -exchange      EXHF   =         0.00000000
  -V(xc)+E(xc)   XCENC  =        93.09779829
  PAW double counting   =     15556.32979780   -15555.53375071
  entropy T*S    EENTRO =        -0.00000000
  eigenvalues    EBANDS =      -371.11570060
  atomic energy  EATOM  =      1469.26374278
  Solvation  Ediel_sol  =         0.00000000
  ---------------------------------------------------
  free energy    TOTEN  =       -37.36889075 eV

  energy without entropy =      -37.36889075  energy(sigma->0) =      -37.36889075


--------------------------------------------------------------------------------------------------------




--------------------------------------- Iteration      1(  31)  ---------------------------------------


    POTLOK:  cpu time   47.2819: real time   47.3404
    SETDIJ:  cpu time    0.0519: real time    0.0519
     EDDAV:  cpu time   22.8422: real time   22.8785
       DOS:  cpu time    0.0063: real time    0.0063
    CHARGE:  cpu time    5.9154: real time    5.9233
    MIXING:  cpu time    2.6674: real time    2.6713
    --------------------------------------------
      LOOP:  cpu time   78.7652: real time   78.8718

 eigenvalue-minimisations  :    40
 total energy-change (2. order) :-0.5543825E-06  (-0.9961614E-09)
 number of electron      24.0000000 magnetization 
 augmentation part        0.1292833 magnetization 

 Broyden mixing:
  rms(total) = 0.11201E-04    rms(broyden)= 0.11201E-04
  rms(prec ) = 0.11249E-04
  weight for this iteration     100.00

 eigenvalues of (default mixing * dielectric matrix)
  average eigenvalue GAMMA=   2.1047
  9.6023  7.4969  5.3476  4.0607  2.8272  2.8272  2.3781  2.3781  1.9031  1.6711
  1.2846  1.1758  1.1758  1.0522  0.9707  0.9707  0.5966  0.8501  0.8501  0.6593
  0.6593  0.7389  0.7389  0.8478  0.8478  0.8105

 Free energy of the ion-electron system (eV)
  ---------------------------------------------------
  alpha Z        PSCENC =         0.03650749
  Ewald energy   TEWEN  =      1224.20150596
  -Hartree energ DENC   =     -2453.64874508
  -exchange      EXHF   =         0.00000000
  -V(xc)+E(xc)   XCENC  =        93.09779516
  PAW double counting   =     15556.28702725   -15555.49097998
  entropy T*S    EENTRO =        -0.00000000
  eigenvalues    EBANDS =      -371.11574488
  atomic energy  EATOM  =      1469.26374278
  Solvation  Ediel_sol  =         0.00000000
  ---------------------------------------------------
  free energy    TOTEN  =       -37.36889130 eV

  energy without entropy =      -37.36889130  energy(sigma->0) =      -37.36889130


--------------------------------------------------------------------------------------------------------




--------------------------------------- Iteration      1(  32)  ---------------------------------------


    POTLOK:  cpu time   47.3330: real time   47.3908
    SETDIJ:  cpu time    0.0601: real time    0.0602
     EDDAV:  cpu time   22.8862: real time   22.9206
       DOS:  cpu time    0.0081: real time    0.0081
    CHARGE:  cpu time    5.8699: real time    5.8784
    MIXING:  cpu time    2.6923: real time    2.6960
    --------------------------------------------
      LOOP:  cpu time   78.8496: real time   78.9541

 eigenvalue-minimisations  :    40
 total energy-change (2. order) :-0.3658411E-06  (-0.9197443E-09)
 number of electron      24.0000000 magnetization 
 augmentation part        0.1292833 magnetization 

 Broyden mixing:
  rms(total) = 0.24677E-05    rms(broyden)= 0.24677E-05
  rms(prec ) = 0.25410E-05
  weight for this iteration     100.00

 eigenvalues of (default mixing * dielectric matrix)
  average eigenvalue GAMMA=   2.1103
  9.6956  7.5780  5.7256  4.3588  2.9202  2.9202  2.2955  2.1282  2.1282  1.5490
  1.5490  1.4204  1.1312  1.1312  0.9510  0.9510  0.5966  0.6593  0.6593  0.8516
  0.8516  0.7387  0.7387  0.9295  0.8637  0.8637  0.7914

 Free energy of the ion-electron system (eV)
  ---------------------------------------------------
  alpha Z        PSCENC =         0.03650749
  Ewald energy   TEWEN  =      1224.20150596
  -Hartree energ DENC   =     -2453.64868738
  -exchange      EXHF   =         0.00000000
  -V(xc)+E(xc)   XCENC  =        93.09779231
  PAW double counting   =     15556.24859632   -15555.45254942
  entropy T*S    EENTRO =        -0.00000000
  eigenvalues    EBANDS =      -371.11579972
  atomic energy  EATOM  =      1469.26374278
  Solvation  Ediel_sol  =         0.00000000
  ---------------------------------------------------
  free energy    TOTEN  =       -37.36889167 eV

  energy without entropy =      -37.36889167  energy(sigma->0) =      -37.36889167


--------------------------------------------------------------------------------------------------------




--------------------------------------- Iteration      1(  33)  ---------------------------------------


    POTLOK:  cpu time   47.5225: real time   47.5798
    SETDIJ:  cpu time    0.0522: real time    0.0522
     EDDAV:  cpu time   22.8809: real time   22.9160
       DOS:  cpu time    0.0059: real time    0.0059
    CHARGE:  cpu time    5.8409: real time    5.8492
    MIXING:  cpu time    3.2138: real time    3.2180
    --------------------------------------------
      LOOP:  cpu time   79.5162: real time   79.6212

 eigenvalue-minimisations  :    40
 total energy-change (2. order) :-0.1257335E-06  (-0.8553940E-09)
 number of electron      24.0000000 magnetization 
 augmentation part        0.1292833 magnetization 

 Broyden mixing:
  rms(total) = 0.46922E-05    rms(broyden)= 0.46922E-05
  rms(prec ) = 0.47121E-05
  weight for this iteration     100.00

 eigenvalues of (default mixing * dielectric matrix)
  average eigenvalue GAMMA=   2.1192
  9.6708  7.7311  5.7400  4.5430  3.0092  2.7247  2.6048  2.6048  2.2638  1.7221
  1.7221  1.3567  1.1480  1.1480  0.9549  0.9549  0.9448  0.9448  0.8515  0.8515
  0.5966  0.6593  0.6593  0.7389  0.7389  0.8319  0.8111  0.8111

 Free energy of the ion-electron system (eV)
  ---------------------------------------------------
  alpha Z        PSCENC =         0.03650749
  Ewald energy   TEWEN  =      1224.20150596
  -Hartree energ DENC   =     -2453.64868710
  -exchange      EXHF   =         0.00000000
  -V(xc)+E(xc)   XCENC  =        93.09779216
  PAW double counting   =     15556.24040721   -15555.44436023
  entropy T*S    EENTRO =        -0.00000000
  eigenvalues    EBANDS =      -371.11580005
  atomic energy  EATOM  =      1469.26374278
  Solvation  Ediel_sol  =         0.00000000
  ---------------------------------------------------
  free energy    TOTEN  =       -37.36889180 eV

  energy without entropy =      -37.36889180  energy(sigma->0) =      -37.36889180


--------------------------------------------------------------------------------------------------------




--------------------------------------- Iteration      1(  34)  ---------------------------------------


    POTLOK:  cpu time   46.9762: real time   47.0321
    SETDIJ:  cpu time    0.0610: real time    0.0610
     EDDAV:  cpu time   22.8250: real time   22.8595
       DOS:  cpu time    0.0064: real time    0.0064
    CHARGE:  cpu time    5.8409: real time    5.8490
    MIXING:  cpu time    3.0091: real time    3.0131
    --------------------------------------------
      LOOP:  cpu time   78.7186: real time   78.8211

 eigenvalue-minimisations  :    40
 total energy-change (2. order) :-0.1384192E-06  (-0.7660610E-09)
 number of electron      24.0000000 magnetization 
 augmentation part        0.1292833 magnetization 

 Broyden mixing:
  rms(total) = 0.32776E-05    rms(broyden)= 0.32776E-05
  rms(prec ) = 0.32869E-05
  weight for this iteration     100.00

 eigenvalues of (default mixing * dielectric matrix)
  average eigenvalue GAMMA=   2.1452
  9.7082  8.1107  6.1849  4.7919  3.5555  2.7473  2.7473  2.3623  2.0522  2.0522
  1.4906  1.4906  1.2122  1.2122  1.1354  0.5966  0.6593  0.6593  0.7387  0.7387
  0.8516  0.8516  0.9502  0.9502  0.8883  0.8883  0.9185  0.8387  0.8280

 Free energy of the ion-electron system (eV)
  ---------------------------------------------------
  alpha Z        PSCENC =         0.03650749
  Ewald energy   TEWEN  =      1224.20150596
  -Hartree energ DENC   =     -2453.64868969
  -exchange      EXHF   =         0.00000000
  -V(xc)+E(xc)   XCENC  =        93.09779245
  PAW double counting   =     15556.24106036   -15555.44501359
  entropy T*S    EENTRO =        -0.00000000
  eigenvalues    EBANDS =      -371.11579770
  atomic energy  EATOM  =      1469.26374278
  Solvation  Ediel_sol  =         0.00000000
  ---------------------------------------------------
  free energy    TOTEN  =       -37.36889193 eV

  energy without entropy =      -37.36889193  energy(sigma->0) =      -37.36889193


--------------------------------------------------------------------------------------------------------




--------------------------------------- Iteration      1(  35)  ---------------------------------------


    POTLOK:  cpu time   47.2313: real time   47.2883
    SETDIJ:  cpu time    0.0488: real time    0.0488
     EDDAV:  cpu time   22.8069: real time   22.8413
       DOS:  cpu time    0.0060: real time    0.0060
    --------------------------------------------
      LOOP:  cpu time   70.0929: real time   70.1844

 eigenvalue-minimisations  :    40
 total energy-change (2. order) :-0.1446324E-07  (-0.6996306E-09)
 number of electron      24.0000000 magnetization 
 augmentation part        0.1292833 magnetization 

 Free energy of the ion-electron system (eV)
  ---------------------------------------------------
  alpha Z        PSCENC =         0.03650749
  Ewald energy   TEWEN  =      1224.20150596
  -Hartree energ DENC   =     -2453.64869287
  -exchange      EXHF   =         0.00000000
  -V(xc)+E(xc)   XCENC  =        93.09779276
  PAW double counting   =     15556.24532212   -15555.44927530
  entropy T*S    EENTRO =        -0.00000000
  eigenvalues    EBANDS =      -371.11579488
  atomic energy  EATOM  =      1469.26374278
  Solvation  Ediel_sol  =         0.00000000
  ---------------------------------------------------
  free energy    TOTEN  =       -37.36889195 eV

  energy without entropy =      -37.36889195  energy(sigma->0) =      -37.36889195


--------------------------------------------------------------------------------------------------------




 average (electrostatic) potential at core
  the test charge radii are     0.4325  0.5770  0.5955
  (the norm of the test charge is              1.0000)
       1 -47.0920       2 -47.0019       3 -91.6252       4-122.5083       5-122.3313
       6-118.8419
 
 
 
 E-fermi :  -6.5304     XC(G=0):  -0.0340     alpha+bet : -0.0095


 k-point     1 :       0.0000    0.0000    0.0000
  band No.  band energies     occupation 
      1     -29.8109      2.00000
      2     -28.7967      2.00000
      3     -24.7143      2.00000
      4     -15.2478      2.00000
      5     -13.6576      2.00000
      6     -13.3257      2.00000
      7     -13.3195      2.00000
      8     -11.9460      2.00000
      9      -9.7678      2.00000
     10      -9.7607      2.00000
     11      -8.5807      2.00000
     12      -6.6303      2.00000
     13      -1.3679      0.00000
     14      -1.1533      0.00000
     15      -1.1389      0.00000
     16      -0.2264      0.00000


--------------------------------------------------------------------------------------------------------


 soft charge-density along one line, spin component            1
         0         1         2         3         4         5         6         7         8         9
 total charge-density along one line
 
 pseudopotential strength for first ion, spin component:            1
 -2.532  -5.384   0.003  -0.010   0.000
 -5.384 -11.423   0.006  -0.021   0.001
  0.003   0.006  -1.389  -0.007   0.000
 -0.010  -0.021  -0.007  -1.368  -0.001
  0.000   0.001   0.000  -0.001  -1.391
 total augmentation occupancy for first ion, spin component:            1
  4.237  -0.793  -0.096   0.360  -0.014
 -0.793   0.177   0.017  -0.069   0.003
 -0.096   0.017   0.009  -0.006   0.000
  0.360  -0.069  -0.006   0.031  -0.001
 -0.014   0.003   0.000  -0.001   0.011


------------------------ aborting loop because EDIFF is reached ----------------------------------------



 DIPCOR: dipole corrections for dipol
 direction  1 min pos   410, direction  2 min pos   488, direction  3 min pos   556,
 dipolmoment          -0.010787      0.436184      0.283857 electrons x Angstroem
 Tr[quadrupol]        14.049734

 energy correction for charged system         0.000000 eV
 dipol+quadrupol energy correction            0.000191 eV
 added-field ion interaction          0.000000 eV  (added to PSCEN)

 
  *************** adding dipol energy to TOTEN NOW **************** 
    CHARGE:  cpu time    5.7131: real time    5.7212
    FORLOC:  cpu time    3.1945: real time    3.1969
    FORNL :  cpu time    1.0936: real time    1.0953
    STRESS:  cpu time   10.4260: real time   10.4410
    FORCOR:  cpu time   46.0838: real time   46.1370
    FORHAR:  cpu time   14.1492: real time   14.1654
    MIXING:  cpu time    2.8277: real time    2.8330
    OFIELD:  cpu time    0.0000: real time    0.0000

  FORCE on cell =-STRESS in cart. coord.  units (eV):
  Direction    XX          YY          ZZ          XY          YZ          ZX
  --------------------------------------------------------------------------------------
  Alpha Z     0.03651     0.03651     0.03651
  Ewald    -112.66790  1357.44307   -20.57351     1.54098   -40.54631    -3.50224
  Hartree   516.44059  1403.43517   533.77294     0.54777   -14.41289    -0.65840
  E(xc)    -115.37577  -112.62701  -114.95570     0.00415    -0.10920    -0.01599
  Local    -916.38060 -3170.35884  -996.57603    -1.78038    46.84534     3.04808
  n-local   -51.47012   -40.73169   -47.66806     0.05370    -1.41153    -0.14471
  augment     2.37841     1.26687     1.79541    -0.00564     0.14691     0.02219
  Kinetic   677.03278   564.21012   644.45678    -0.35366     9.30566     1.23985
  Fock        0.00000     0.00000     0.00000     0.00000     0.00000     0.00000
  -------------------------------------------------------------------------------------
  Total      -0.00612     2.67422     0.28833     0.00692    -0.18201    -0.01122
  in kB      -0.00023     0.09993     0.01077     0.00026    -0.00680    -0.00042
  external pressure =        0.04 kB  Pullay stress =        0.00 kB


 VOLUME and BASIS-vectors are now :
 -----------------------------------------------------------------------------
  energy-cutoff  :     2000.00
  volume of cell :    42875.00
      direct lattice vectors                 reciprocal lattice vectors
    35.000000000  0.000000000  0.000000000     0.028571429  0.000000000  0.000000000
     0.000000000 35.000000000  0.000000000     0.000000000  0.028571429  0.000000000
     0.000000000  0.000000000 35.000000000     0.000000000  0.000000000  0.028571429

  length of vectors
    35.000000000 35.000000000 35.000000000     0.028571429  0.028571429  0.028571429


 FORCES acting on ions
    electron-ion (+dipol)            ewald-force                    non-local-force                 convergence-correction
 -----------------------------------------------------------------------------------------------
   -.344E+01 -.410E+02 0.904E+02   0.376E+01 0.436E+02 -.989E+02   -.312E+00 -.233E+01 0.821E+01   0.196E-07 0.186E-06 -.326E-06
   0.135E+00 0.432E+02 -.356E+01   -.146E+00 -.517E+02 0.385E+01   0.101E-01 0.857E+01 -.265E+00   0.558E-09 -.231E-07 0.210E-06
   0.280E-01 0.341E+02 -.736E+00   -.300E-01 -.355E+02 0.789E+00   0.999E-03 0.782E+00 -.263E-01   0.243E-07 -.820E-06 0.526E-06
   0.110E+00 -.167E+03 -.289E+01   -.119E+00 0.225E+03 0.314E+01   0.911E-02 -.589E+02 -.240E+00   0.952E-07 -.785E-06 0.757E-06
   0.192E-01 0.314E+03 -.505E+00   -.212E-01 -.377E+03 0.559E+00   0.239E-02 0.627E+02 -.628E-01   -.133E-06 0.240E-05 0.894E-06
   0.191E+01 -.166E+03 -.502E+02   -.344E+01 0.196E+03 0.906E+02   0.152E+01 -.285E+02 -.401E+02   0.106E-06 -.354E-06 0.109E-05
 -----------------------------------------------------------------------------------------------
   -.124E+01 0.177E+02 0.325E+02   -.444E-15 0.000E+00 0.000E+00   0.124E+01 -.177E+02 -.325E+02   0.113E-06 0.605E-06 0.315E-05
 
 
 POSITION                                       TOTAL-FORCE (eV/Angst)
 -----------------------------------------------------------------------------------
      0.03541      4.05416     34.06830         0.012036      0.195392     -0.316681
      0.00000      2.85848      0.00000        -0.000880      0.129914      0.023149
      0.00000      0.08826      0.00000        -0.001003     -0.617954      0.026381
      0.00000      1.25848      0.00000        -0.000432     -0.921221      0.011355
      0.00000     33.91804      0.00000         0.000325      0.388323     -0.008559
      0.00000      3.81985      0.00000        -0.010047      0.825546      0.264356
 -----------------------------------------------------------------------------------
    total drift:                                0.000001      0.000008      0.000005


--------------------------------------------------------------------------------------------------------



  FREE ENERGIE OF THE ION-ELECTRON SYSTEM (eV)
  ---------------------------------------------------
  free  energy   TOTEN  =       -37.36870137 eV

  energy  without entropy=      -37.36870137  energy(sigma->0) =      -37.36870137
 


--------------------------------------------------------------------------------------------------------


    POTLOK:  cpu time   47.3345: real time   47.3916


--------------------------------------------------------------------------------------------------------


 writing wavefunctions
     LOOP+:  cpu time 3613.9046: real time 3618.0988
    4ORBIT:  cpu time    0.0000: real time    0.0000

 total amount of memory used by VASP MPI-rank0  7831441. kBytes
=======================================================================

   base      :      30000. kBytes
   nonl-proj :     156739. kBytes
   fftplans  :    2602168. kBytes
   grid      :    4972871. kBytes
   one-center:          1. kBytes
   wavefun   :      69662. kBytes
 
  
  
 General timing and accounting informations for this job:
 ========================================================
  
                  Total CPU time used (sec):     4687.537
                            User time (sec):     4476.233
                          System time (sec):      211.304
                         Elapsed time (sec):     4693.543
  
                   Maximum memory used (kb):    10458672.
                   Average memory used (kb):           0.
  
                          Minor page faults:    208225000
                          Major page faults:          201
                 Voluntary context switches:         1810
