
 Primary working directories    : /scratch/sirous/43709/molpro.50sunul19X
 Secondary working directories  : /scratch/sirous/43709/molpro.50sunul19X
 Wavefunction directory         : /scratch/sirous/43709/
 Main file repository           : /scratch/sirous/43709/molpro.50sunul19X/

 id        : karlovklimes

 Nodes                      nprocs
 nc-16.cc.karlov.mff.cuni.cz    4

 Using customized tuning parameters: mindgm=1; mindgv=20; mindgc=4; mindgr=1; noblas=0; minvec=7
 default implementation of scratch files=sf  


 Variables initialized (934), CPU time= 0.00 sec
 ***,CH3C6H4CN+CF3CN+BF3
 memory,500,m
 gdirect
 gthresh,energy=1.d-8,twoint=1.d-15,oneint=1.d-15,zero=1.d-15,orbital=1.d-8,grid=1.d-8
 symmetry,nosym
 geomtyp=xyz
                                                                                 ! Geometry
 geometry={
 O1        -0.636134928    -0.023282411     0.280599321
 H1        0.308097372    -0.047078748     0.076463691
 C1        -1.152065407    -1.311287783     0.015259549
 H2        -2.209945023    -1.296265392     0.263955863
 H3        -1.056610240    -1.592670859     -1.036190606
 H4        -0.674835746    -2.086272765     0.620511449
 O2        2.048029160    -0.115715786     -0.004542305
 H5        2.516818470    0.498668738     -0.574208259
 C2        2.556863086    0.041303152     1.317175019
 H6        2.003294006    -0.646893275     1.947305899
 H7        3.615859188    -0.209135747     1.373898160
 H8        2.404423448    1.051997205     1.695067565
 }
 
 
 
 basis=aug-cc-pv5z
 
 
 
                                                                                 ! Dimer Calculation
 {rhf,accu=1.d-8;orbital,2101.2}
 eab_HF=energy
 
 
                                                                                 !monomer A
 dummy,7,8,9,10,11,12;                                                           ! NOW MONOMER B IS DUMMY
 {rhf,accu=1.d-8;orbital,2201.2}
 ea_HF=energy
                                                                                 !monomer B
 dummy,1,2,3,4,5,6;                                                              !NOW MONOMER A IS DUMMY
 {rhf,accu=1.d-8;orbital,2301.2}
 eb_HF=energy
 
 E_AB_int=eab_HF-ea_HF-eb_HF
 
 
 text,results in hartree
 show,E_AB_int
 
 Commands  initialized (763), CPU time= 0.02 sec, 617 directives.
 Default parameters read. Elapsed time= 0.21 sec

 Checking input...
 Passed
1


                                         ***  PROGRAM SYSTEM MOLPRO  ***
                                       Copyright, TTI GmbH Stuttgart, 2015
                                    Version 2019.2 linked Jun  8 2019 11:26:33


 **********************************************************************************************************************************
 LABEL *   CH3C6H4CN+CF3CN+BF3                                                           
  64 bit mpp version                                                                     DATE: 07-Oct-19          TIME: 16:46:10  
 **********************************************************************************************************************************

 SHA1:             8135a10abc80eafa5b3ae28ffc55be4890dc4c84
 **********************************************************************************************************************************

 THRESHOLDS:

 ZERO    =  1.00D-15  ONEINT  =  1.00D-15  TWOINT  =  1.00D-15  PREFAC  =  1.00D-14  XXXXXX  =  1.00D-09  EORDER  =  1.00D-04
 ENERGY  =  1.00D-08  ETEST   =  0.00D+00  EDENS   =  0.00D+00  THRDEDEF=  1.00D-06  GRADIENT=  1.00D-02  STEP    =  1.00D-03
 ORBITAL =  1.00D-08  CIVEC   =  1.00D-05  COEFF   =  1.00D-04  PRINTCI =  5.00D-02  PUNCHCI =  9.90D+01  OPTGRAD =  3.00D-04
 OPTENERG=  1.00D-06  OPTSTEP =  3.00D-04  THRGRAD =  1.00D-10  COMPRESS=  1.00D-11  VARMIN  =  1.00D-07  VARMAX  =  1.00D-03
 THRDOUB =  0.00D+00  THRDIV  =  1.00D-05  THRRED  =  1.00D-07  THRPSP  =  1.00D+00  THRDC   =  1.00D-10  THRCS   =  1.00D-10
 THRNRM  =  1.00D-08  THREQ   =  0.00D+00  THRDE   =  1.00D+00  THRREF  =  1.00D-05  SPARFAC =  1.00D+00  THRDLP  =  1.00D-07
 THRDIA  =  1.00D-10  THRDLS  =  1.00D-07  THRGPS  =  0.00D+00  THRKEX  =  0.00D+00  THRDIS  =  2.00D-01  THRVAR  =  1.00D-10
 THRLOC  =  1.00D-06  THRGAP  =  1.00D-06  THRLOCT = -1.00D+00  THRGAPT = -1.00D+00  THRORB  =  1.00D-06  THRMLTP =  0.00D+00
 THRCPQCI=  1.00D-10  KEXTA   =  0.00D+00  THRCOARS=  0.00D+00  SYMTOL  =  1.00D-06  GRADTOL =  1.00D-06  THROVL  =  1.00D-08
 THRORTH =  1.00D-08  GRID    =  1.00D-08  GRIDMAX =  1.00D-03  DTMAX   =  0.00D+00  THROCCDE=  1.00D-01  THROCCDE=  1.00D-01
 THRPRINT=  2.50D-01


 Variable memory set to  500000000 words,  buffer space 

 SETTING GEOMTYP        =    XYZ
 ZSYMEL=NOSYM

 SETTING BASIS          =    AUG-CC-PV5Z


 Recomputing integrals since basis changed


 Using spherical harmonics

 Library entry O      S aug-cc-pV5Z          selected for orbital group  1
 Library entry O      P aug-cc-pV5Z          selected for orbital group  1
 Library entry O      D aug-cc-pV5Z          selected for orbital group  1
 Library entry O      F aug-cc-pV5Z          selected for orbital group  1
 Library entry O      G aug-cc-pV5Z          selected for orbital group  1
 Library entry O      H aug-cc-pV5Z          selected for orbital group  1
 Library entry H      S aug-cc-pV5Z          selected for orbital group  2
 Library entry H      P aug-cc-pV5Z          selected for orbital group  2
 Library entry H      D aug-cc-pV5Z          selected for orbital group  2
 Library entry H      F aug-cc-pV5Z          selected for orbital group  2
 Library entry H      G aug-cc-pV5Z          selected for orbital group  2
 Library entry C      S aug-cc-pV5Z          selected for orbital group  3
 Library entry C      P aug-cc-pV5Z          selected for orbital group  3
 Library entry C      D aug-cc-pV5Z          selected for orbital group  3
 Library entry C      F aug-cc-pV5Z          selected for orbital group  3
 Library entry C      G aug-cc-pV5Z          selected for orbital group  3
 Library entry C      H aug-cc-pV5Z          selected for orbital group  3


 PROGRAM * SEWARD (Integral evaluation for generally contracted gaussian basis sets)     Author: Roland Lindh, 1990

 Geometry written to block  1 of record 700


 Point group  C1  



 ATOMIC COORDINATES

 NR  ATOM    CHARGE       X              Y              Z

   1  O1      8.00   -1.202120792   -0.043997380    0.530255867
   2  H1      1.00    0.582219653   -0.088965940    0.144495434
   3  C1      6.00   -2.177088097   -2.477974780    0.028836368
   4  H2      1.00   -4.176190844   -2.449586576    0.498804290
   5  H3      1.00   -1.996703974   -3.009711730   -1.958116458
   6  H4      1.00   -1.275254739   -3.942484147    1.172596696
   7  O2      8.00    3.870214208   -0.218671144   -0.008583712
   8  H5      1.00    4.756097614    0.942347342   -1.085096348
   9  C2      6.00    4.831770971    0.078051645    2.489100044
  10  H6      1.00    3.785677018   -1.222451122    3.679874830
  11  H7      1.00    6.832983570   -0.395209285    2.596291245
  12  H8      1.00    4.543701804    1.987986601    3.203213460

 Bond lengths in Bohr (Angstrom)

 1-2  1.826117221  1-3  2.669499718  3-4  2.053798318  3-5  2.064767336  3-6  2.065497223
     ( 0.966339618)     ( 1.412638415)     ( 1.086823266)     ( 1.092627820)     ( 1.093014059)

  7- 8  1.814285751   7- 9  2.692779228   9-10  2.050259641   9-11  2.059203179   9-12  2.059318662
       ( 0.960078674)       ( 1.424957401)       ( 1.084950678)       ( 1.089683395)       ( 1.089744506)

 Bond angles

  1-3-4  107.45243548   1-3-5  112.56023931   1-3-6  112.51984286   2-1-3  107.14181275

  4- 3- 5  107.98697639   4- 3- 6  107.94343217   5- 3- 6  108.18798930   7- 9-10  106.65583749

  7- 9-11  111.71494436   7- 9-12  111.95602748   8- 7- 9  107.78761842  10- 9-11  108.65333210

 10- 9-12  108.39236686  11- 9-12  109.33255661

 NUCLEAR CHARGE:                   36
 NUMBER OF PRIMITIVE AOS:        1660
 NUMBER OF SYMMETRY AOS:         1240
 NUMBER OF CONTRACTIONS:         1148   ( 1148A   )
 NUMBER OF CORE ORBITALS:           4   (    4A   )
 NUMBER OF VALENCE ORBITALS:       24   (   24A   )


 NUCLEAR REPULSION ENERGY  131.83013311


 Eigenvalues of metric

         1 0.897E-06 0.952E-06 0.118E-05 0.126E-05 0.139E-05 0.168E-05 0.218E-05 0.285E-05


 OPERATOR DM      FOR CENTER  0  COORDINATES:    0.000000    0.000000    0.000000


 **********************************************************************************************************************************
 DATASETS  * FILE   NREC   LENGTH (MB)   RECORD NAMES
              1      18       78.02       500      610      700      900      950      970     1000      129      960     1100   
                                          VAR    BASINP    GEOM    SYMINP    ZMAT    AOBASIS   BASIS     P2S    ABASIS      S 
                                         1400     1410     1200     1210     1080     1600     1650     1700   
                                           T        V       H0       H01     AOSYM     SMH    MOLCAS    OPER   

 PROGRAMS   *        TOTAL       INT
 CPU TIMES  *         2.92      2.74
 REAL TIME  *         4.39 SEC
 DISK USED  *        78.89 MB (local),      315.55 MB (total)
 GA USED    *         0.00 MB       (max)       0.00 MB       (current)
 **********************************************************************************************************************************


 PROGRAM * RHF-SCF (CLOSED SHELL)       Authors: W. Meyer, H.-J. Werner


 NUMBER OF ELECTRONS:      18+   18-    SPACE SYMMETRY=1    SPIN SYMMETRY: Singlet 
 CONVERGENCE THRESHOLDS:    1.00E-04 (Density)    1.00E-09 (Energy)
 INTEGRAL THRESHOLDS:       1.00E-13 (Initial)    1.00E-13 (Final)
 MAX. NUMBER OF ITERATIONS:       60
 INTERPOLATION TYPE:            DIIS
 INTERPOLATION STEPS:              2 (START)      1 (STEP)
 LEVEL SHIFTS:                  0.00 (CLOSED)  0.00 (OPEN) 



 Orbital guess generated from atomic densities. Full valence occupancy:   28

 Molecular orbital dump at record        2101.2

 Initial occupancy:  18

 Direct Fock-matrix evaluation.        Authors: Roland Lindh & Martin Schuetz (1993/96)

 Integral Threshold:                  0.1D-12
 Threshold for writing integrals:     0.1D-06
 Prescreening on density matrix:        ON 
 Calculation will be performed fully direct        

 ITERATION   DDIFF            GRAD            ENERGY        2-EL.EN.            DIPOLE MOMENTS         DIIS   CPU(IT)  CPU(TOT)
    1      0.000D+00      0.000D+00      -230.13857244    431.174113    1.60883   -0.06230   -0.13743    0   6380.7   6428.7     start
    2      0.000D+00      0.187D-02      -230.19309045    426.529572    1.18140    0.05166    0.02650    1   6158.9  12587.6     diag
    3      0.101D-02      0.961D-03      -230.20528148    428.774277    1.24953   -0.02495    0.01620    2   5812.7  18400.3     diag
    4      0.352D-03      0.213D-03      -230.20633562    428.434819    1.23303   -0.01303    0.01664    3   5622.5  24022.8     diag
    5      0.975D-04      0.390D-04      -230.20639428    428.445551    1.22517   -0.01952    0.02032    4   5297.2  29320.0     diag
    6      0.245D-04      0.882D-05      -230.20639732    428.445641    1.22467   -0.01892    0.02105    5   4917.8  34237.8     diag
    7      0.789D-05      0.361D-05      -230.20639760    428.442818    1.22431   -0.01959    0.02084    6   4460.9  38698.7     diag
    8      0.218D-05      0.982D-06      -230.20639763    428.443434    1.22415   -0.01964    0.02099    7   4262.7  42961.4     diag
    9      0.884D-06      0.236D-06      -230.20639764    428.443482    1.22412   -0.01965    0.02099    8   3753.8  46715.2     diag
   10      0.176D-06      0.758D-07      -230.20639764    428.443448    1.22410   -0.01966    0.02099    9   3396.2  50111.4     orth
   11      0.760D-07      0.141D-07      -230.20639764    428.443454    1.22410   -0.01966    0.02099    0   2786.8  52898.1     orth

 Final occupancy:  18

 !RHF STATE  1.1 Energy              -230.206397636498
 Nuclear energy                       131.83013311
 One-electron energy                 -576.25825787
 Two-electron energy                  214.22172711
 Virial quotient                       -1.00075467
 !RHF STATE  1.1 Dipole moment          1.22409852    -0.01965749     0.02099167
 Dipole moment /Debye                   3.11114432    -0.04996109     0.05335200

 Orbital energies:

         1.1          2.1          3.1          4.1          5.1          6.1          7.1          8.1          9.1         10.1
    -20.583017   -20.517672   -11.284696   -11.247366    -1.387371    -1.325657    -0.945109    -0.901977    -0.724072    -0.675087

        11.1         12.1         13.1         14.1         15.1         16.1         17.1         18.1         19.1         20.1
     -0.636489    -0.611604    -0.595665    -0.567685    -0.530708    -0.488068    -0.463508    -0.421649     0.017936     0.030215


 HOMO     18.1    -0.421649 =     -11.4736eV
 LUMO     19.1     0.017936 =       0.4881eV
 LUMO-HOMO         0.439585 =      11.9617eV


 **********************************************************************************************************************************
 DATASETS  * FILE   NREC   LENGTH (MB)   RECORD NAMES
              1      18       78.02       500      610      700      900      950      970     1000      129      960     1100   
                                          VAR    BASINP    GEOM    SYMINP    ZMAT    AOBASIS   BASIS     P2S    ABASIS      S 
                                         1400     1410     1200     1210     1080     1600     1650     1700   
                                           T        V       H0       H01     AOSYM     SMH    MOLCAS    OPER   

              2       4       29.53       700     1000      520     2101   
                                         GEOM     BASIS   MCVARS     RHF  

 PROGRAMS   *        TOTAL   RHF-SCF       INT
 CPU TIMES  *     52902.96  52900.04      2.74
 REAL TIME  *     53078.04 SEC
 DISK USED  *       202.78 MB (local),      811.10 MB (total)
 SF USED    *        15.83 MB
 GA USED    *         0.00 MB       (max)       0.00 MB       (current)
 **********************************************************************************************************************************
 SETTING EAB_HF         =      -230.20639764  AU                              

 Dummy atoms: O2  H5  C2  H6  H7  H8


 Recomputing one-electron integrals since nuclear charges changed


 PROGRAM * SEWARD (Integral evaluation for generally contracted gaussian basis sets)     Author: Roland Lindh, 1990

 Geometry written to block  1 of record 700


 Point group  C1  



 ATOMIC COORDINATES

 NR  ATOM    CHARGE       X              Y              Z

   1  O1      8.00   -1.202120792   -0.043997380    0.530255867
   2  H1      1.00    0.582219653   -0.088965940    0.144495434
   3  C1      6.00   -2.177088097   -2.477974780    0.028836368
   4  H2      1.00   -4.176190844   -2.449586576    0.498804290
   5  H3      1.00   -1.996703974   -3.009711730   -1.958116458
   6  H4      1.00   -1.275254739   -3.942484147    1.172596696
   7  O2      0.00    3.870214208   -0.218671144   -0.008583712
   8  H5      0.00    4.756097614    0.942347342   -1.085096348
   9  C2      0.00    4.831770971    0.078051645    2.489100044
  10  H6      0.00    3.785677018   -1.222451122    3.679874830
  11  H7      0.00    6.832983570   -0.395209285    2.596291245
  12  H8      0.00    4.543701804    1.987986601    3.203213460

 Bond lengths in Bohr (Angstrom)

 1-2  1.826117221  1-3  2.669499718  3-4  2.053798318  3-5  2.064767336  3-6  2.065497223
     ( 0.966339618)     ( 1.412638415)     ( 1.086823266)     ( 1.092627820)     ( 1.093014059)

  7- 8  1.814285751   7- 9  2.692779228   9-10  2.050259641   9-11  2.059203179   9-12  2.059318662
       ( 0.960078674)       ( 1.424957401)       ( 1.084950678)       ( 1.089683395)       ( 1.089744506)

 Bond angles

  1-3-4  107.45243548   1-3-5  112.56023931   1-3-6  112.51984286   2-1-3  107.14181275

  4- 3- 5  107.98697639   4- 3- 6  107.94343217   5- 3- 6  108.18798930   7- 9-10  106.65583749

  7- 9-11  111.71494436   7- 9-12  111.95602748   8- 7- 9  107.78761842  10- 9-11  108.65333210

 10- 9-12  108.39236686  11- 9-12  109.33255661

 NUCLEAR CHARGE:                   18
 NUMBER OF PRIMITIVE AOS:        1660
 NUMBER OF SYMMETRY AOS:         1240
 NUMBER OF CONTRACTIONS:         1148   ( 1148A   )
 NUMBER OF CORE ORBITALS:           2   (    2A   )
 NUMBER OF VALENCE ORBITALS:       12   (   12A   )

 MOLECULE CHANGED: INITIALIZING OCCUPATION AND DUMP RECORDS


 NUCLEAR REPULSION ENERGY   40.41731286


 Eigenvalues of metric

         1 0.897E-06 0.952E-06 0.118E-05 0.126E-05 0.139E-05 0.168E-05 0.218E-05 0.285E-05


 OPERATOR DM      FOR CENTER  0  COORDINATES:    0.000000    0.000000    0.000000


 **********************************************************************************************************************************
 DATASETS  * FILE   NREC   LENGTH (MB)   RECORD NAMES
              1      18       78.02       500      610      700      900      950      970     1000      129      960     1100   
                                          VAR    BASINP    GEOM    SYMINP    ZMAT    AOBASIS   BASIS     P2S    ABASIS      S 
                                         1400     1410     1200     1210     1080     1600     1650     1700   
                                           T        V       H0       H01     AOSYM     SMH    MOLCAS    OPER   

              2       4       29.53       700     1000      520     2101   
                                         GEOM     BASIS   MCVARS     RHF  

 PROGRAMS   *        TOTAL       INT   RHF-SCF       INT
 CPU TIMES  *     52905.33      2.37  52900.04      2.74
 REAL TIME  *     53080.58 SEC
 DISK USED  *       202.78 MB (local),      811.10 MB (total)
 SF USED    *        15.83 MB
 GA USED    *         0.00 MB       (max)       0.00 MB       (current)
 **********************************************************************************************************************************


 PROGRAM * RHF-SCF (CLOSED SHELL)       Authors: W. Meyer, H.-J. Werner


 NUMBER OF ELECTRONS:       9+    9-    SPACE SYMMETRY=1    SPIN SYMMETRY: Singlet 
 CONVERGENCE THRESHOLDS:    1.00E-04 (Density)    1.00E-09 (Energy)
 INTEGRAL THRESHOLDS:       1.00E-13 (Initial)    1.00E-13 (Final)
 MAX. NUMBER OF ITERATIONS:       60
 INTERPOLATION TYPE:            DIIS
 INTERPOLATION STEPS:              2 (START)      1 (STEP)
 LEVEL SHIFTS:                  0.00 (CLOSED)  0.00 (OPEN) 



 Orbital guess generated from atomic densities. Full valence occupancy:   14

 Molecular orbital dump at record        2201.2

 Initial occupancy:   9

 Direct Fock-matrix evaluation.        Authors: Roland Lindh & Martin Schuetz (1993/96)

 Integral Threshold:                  0.1D-12
 Threshold for writing integrals:     0.1D-06
 Prescreening on density matrix:        ON 
 Calculation will be performed fully direct        

 ITERATION   DDIFF            GRAD            ENERGY        2-EL.EN.            DIPOLE MOMENTS         DIIS   CPU(IT)  CPU(TOT)
    1      0.000D+00      0.000D+00      -115.06466654    164.630043    0.61892   -0.74815   -0.34503    0   6138.6   6166.7     start
    2      0.000D+00      0.195D-02      -115.09314004    162.031955    0.32058   -0.44034   -0.19363    1   5872.9  12039.7     diag
    3      0.732D-03      0.107D-02      -115.10061612    163.301548    0.37641   -0.56132   -0.24050    2   5550.5  17590.2     diag
    4      0.267D-03      0.212D-03      -115.10115525    163.123768    0.37332   -0.55481   -0.23800    3   5293.6  22883.8     diag
    5      0.674D-04      0.430D-04      -115.10119074    163.135242    0.36763   -0.55757   -0.23763    4   5018.1  27901.8     diag
    6      0.184D-04      0.812D-05      -115.10119240    163.133083    0.36743   -0.55831   -0.23780    5   4650.0  32551.8     diag
    7      0.590D-05      0.178D-05      -115.10119249    163.132615    0.36714   -0.55849   -0.23779    6   4207.5  36759.3     diag
    8      0.160D-05      0.476D-06      -115.10119249    163.133014    0.36712   -0.55851   -0.23779    7   3622.4  40381.7     diag
    9      0.278D-06      0.148D-06      -115.10119249    163.132880    0.36710   -0.55851   -0.23779    8   3168.9  43550.7     diag
   10      0.911D-07      0.340D-07      -115.10119249    163.132907    0.36710   -0.55851   -0.23779    0   2558.6  46109.3     orth

 Final occupancy:   9

 !RHF STATE  1.1 Energy              -115.101192493436
 Nuclear energy                        40.41731286
 One-electron energy                 -237.08495907
 Two-electron energy                   81.56645372
 Virial quotient                       -1.00102390
 !RHF STATE  1.1 Dipole moment          0.36709931    -0.55850721    -0.23779005
 Dipole moment /Debye                   0.93301227    -1.41949076    -0.60436245

 Orbital energies:

         1.1          2.1          3.1          4.1          5.1          6.1          7.1          8.1          9.1         10.1
    -20.557651   -11.269068    -1.359312    -0.924933    -0.692454    -0.621012    -0.595657    -0.504483    -0.451456     0.016120

        11.1
      0.028875


 HOMO      9.1    -0.451456 =     -12.2847eV
 LUMO     10.1     0.016120 =       0.4386eV
 LUMO-HOMO         0.467576 =      12.7234eV


 **********************************************************************************************************************************
 DATASETS  * FILE   NREC   LENGTH (MB)   RECORD NAMES
              1      18       78.02       500      610      700      900      950      970     1000      129      960     1100   
                                          VAR    BASINP    GEOM    SYMINP    ZMAT    AOBASIS   BASIS     P2S    ABASIS      S 
                                         1400     1410     1200     1210     1080     1600     1650     1700   
                                           T        V       H0       H01     AOSYM     SMH    MOLCAS    OPER   

              2       5       84.80       700     1000      520     2101     2201   
                                         GEOM     BASIS   MCVARS     RHF      RHF  

 PROGRAMS   *        TOTAL   RHF-SCF       INT   RHF-SCF       INT
 CPU TIMES  *     99016.59  46111.26      2.37  52900.04      2.74
 REAL TIME  *     99340.42 SEC
 DISK USED  *       252.77 MB (local),        1.01 GB (total)
 SF USED    *        15.83 MB
 GA USED    *         0.00 MB       (max)       0.00 MB       (current)
 **********************************************************************************************************************************
 SETTING EA_HF          =      -115.10119249  AU                              

 Dummy atoms: O1  H1  C1  H2  H3  H4


 Recomputing one-electron integrals since nuclear charges changed


 PROGRAM * SEWARD (Integral evaluation for generally contracted gaussian basis sets)     Author: Roland Lindh, 1990

 Geometry written to block  1 of record 700


 Point group  C1  



 ATOMIC COORDINATES

 NR  ATOM    CHARGE       X              Y              Z

   1  O1      0.00   -1.202120792   -0.043997380    0.530255867
   2  H1      0.00    0.582219653   -0.088965940    0.144495434
   3  C1      0.00   -2.177088097   -2.477974780    0.028836368
   4  H2      0.00   -4.176190844   -2.449586576    0.498804290
   5  H3      0.00   -1.996703974   -3.009711730   -1.958116458
   6  H4      0.00   -1.275254739   -3.942484147    1.172596696
   7  O2      8.00    3.870214208   -0.218671144   -0.008583712
   8  H5      1.00    4.756097614    0.942347342   -1.085096348
   9  C2      6.00    4.831770971    0.078051645    2.489100044
  10  H6      1.00    3.785677018   -1.222451122    3.679874830
  11  H7      1.00    6.832983570   -0.395209285    2.596291245
  12  H8      1.00    4.543701804    1.987986601    3.203213460

 Bond lengths in Bohr (Angstrom)

 1-2  1.826117221  1-3  2.669499718  3-4  2.053798318  3-5  2.064767336  3-6  2.065497223
     ( 0.966339618)     ( 1.412638415)     ( 1.086823266)     ( 1.092627820)     ( 1.093014059)

  7- 8  1.814285751   7- 9  2.692779228   9-10  2.050259641   9-11  2.059203179   9-12  2.059318662
       ( 0.960078674)       ( 1.424957401)       ( 1.084950678)       ( 1.089683395)       ( 1.089744506)

 Bond angles

  1-3-4  107.45243548   1-3-5  112.56023931   1-3-6  112.51984286   2-1-3  107.14181275

  4- 3- 5  107.98697639   4- 3- 6  107.94343217   5- 3- 6  108.18798930   7- 9-10  106.65583749

  7- 9-11  111.71494436   7- 9-12  111.95602748   8- 7- 9  107.78761842  10- 9-11  108.65333210

 10- 9-12  108.39236686  11- 9-12  109.33255661

 NUCLEAR CHARGE:                   18
 NUMBER OF PRIMITIVE AOS:        1660
 NUMBER OF SYMMETRY AOS:         1240
 NUMBER OF CONTRACTIONS:         1148   ( 1148A   )
 NUMBER OF CORE ORBITALS:           2   (    2A   )
 NUMBER OF VALENCE ORBITALS:       12   (   12A   )

 MOLECULE CHANGED: INITIALIZING OCCUPATION AND DUMP RECORDS


 NUCLEAR REPULSION ENERGY   40.29806389


 Eigenvalues of metric

         1 0.897E-06 0.952E-06 0.118E-05 0.126E-05 0.139E-05 0.168E-05 0.218E-05 0.285E-05


 OPERATOR DM      FOR CENTER  0  COORDINATES:    0.000000    0.000000    0.000000


 **********************************************************************************************************************************
 DATASETS  * FILE   NREC   LENGTH (MB)   RECORD NAMES
              1      18       78.02       500      610      700      900      950      970     1000      129      960     1100   
                                          VAR    BASINP    GEOM    SYMINP    ZMAT    AOBASIS   BASIS     P2S    ABASIS      S 
                                         1400     1410     1200     1210     1080     1600     1650     1700   
                                           T        V       H0       H01     AOSYM     SMH    MOLCAS    OPER   

              2       5       84.80       700     1000      520     2101     2201   
                                         GEOM     BASIS   MCVARS     RHF      RHF  

 PROGRAMS   *        TOTAL       INT   RHF-SCF       INT   RHF-SCF       INT
 CPU TIMES  *     99018.98      2.39  46111.26      2.37  52900.04      2.74
 REAL TIME  *     99343.00 SEC
 DISK USED  *       252.77 MB (local),        1.01 GB (total)
 SF USED    *        15.83 MB
 GA USED    *         0.00 MB       (max)       0.00 MB       (current)
 **********************************************************************************************************************************


 PROGRAM * RHF-SCF (CLOSED SHELL)       Authors: W. Meyer, H.-J. Werner


 NUMBER OF ELECTRONS:       9+    9-    SPACE SYMMETRY=1    SPIN SYMMETRY: Singlet 
 CONVERGENCE THRESHOLDS:    1.00E-04 (Density)    1.00E-09 (Energy)
 INTEGRAL THRESHOLDS:       1.00E-13 (Initial)    1.00E-13 (Final)
 MAX. NUMBER OF ITERATIONS:       60
 INTERPOLATION TYPE:            DIIS
 INTERPOLATION STEPS:              2 (START)      1 (STEP)
 LEVEL SHIFTS:                  0.00 (CLOSED)  0.00 (OPEN) 



 Orbital guess generated from atomic densities. Full valence occupancy:   14

 Molecular orbital dump at record        2301.2

 Initial occupancy:   9

 Direct Fock-matrix evaluation.        Authors: Roland Lindh & Martin Schuetz (1993/96)

 Integral Threshold:                  0.1D-12
 Threshold for writing integrals:     0.1D-06
 Prescreening on density matrix:        ON 
 Calculation will be performed fully direct        

 ITERATION   DDIFF            GRAD            ENERGY        2-EL.EN.            DIPOLE MOMENTS         DIIS   CPU(IT)  CPU(TOT)
    1      0.000D+00      0.000D+00      -115.06482927    164.417346    0.74225    0.68115    0.21516    0   6082.1   6111.0     start
    2      0.000D+00      0.196D-02      -115.09324112    161.817108    0.41836    0.37494    0.15588    1   5810.6  11921.6     diag
    3      0.761D-03      0.108D-02      -115.10085335    163.088366    0.51682    0.45665    0.21652    2   5486.4  17408.0     diag
    4      0.271D-03      0.211D-03      -115.10138765    162.913399    0.51198    0.45272    0.21306    3   5249.4  22657.4     diag
    5      0.676D-04      0.424D-04      -115.10142224    162.924354    0.51095    0.45023    0.21861    4   4929.9  27587.3     diag
    6      0.175D-04      0.797D-05      -115.10142382    162.922245    0.51132    0.45041    0.21929    5   4517.6  32104.8     diag
    7      0.535D-05      0.171D-05      -115.10142390    162.921769    0.51130    0.45031    0.21960    6   4094.9  36199.8     diag
    8      0.133D-05      0.459D-06      -115.10142391    162.922157    0.51130    0.45030    0.21964    7   3556.9  39756.7     diag
    9      0.256D-06      0.144D-06      -115.10142391    162.922029    0.51129    0.45029    0.21965    8   3108.0  42864.7     diag
   10      0.927D-07      0.331D-07      -115.10142391    162.922054    0.51129    0.45029    0.21965    0   2488.0  45352.7     orth

 Final occupancy:   9

 !RHF STATE  1.1 Energy              -115.101423905623
 Nuclear energy                        40.29806389
 One-electron energy                 -236.86051485
 Two-electron energy                   81.46102705
 Virial quotient                       -1.00101919
 !RHF STATE  1.1 Dipole moment          0.51128957     0.45029171     0.21964905
 Dipole moment /Debye                   1.29948335     1.14445240     0.55825564

 Orbital energies:

         1.1          2.1          3.1          4.1          5.1          6.1          7.1          8.1          9.1         10.1
    -20.555589   -11.269425    -1.355324    -0.926599    -0.690357    -0.621217    -0.592449    -0.505428    -0.452842     0.019974

        11.1
      0.028249


 HOMO      9.1    -0.452842 =     -12.3225eV
 LUMO     10.1     0.019974 =       0.5435eV
 LUMO-HOMO         0.472816 =      12.8660eV


 **********************************************************************************************************************************
 DATASETS  * FILE   NREC   LENGTH (MB)   RECORD NAMES
              1      18       78.02       500      610      700      900      950      970     1000      129      960     1100   
                                          VAR    BASINP    GEOM    SYMINP    ZMAT    AOBASIS   BASIS     P2S    ABASIS      S 
                                         1400     1410     1200     1210     1080     1600     1650     1700   
                                           T        V       H0       H01     AOSYM     SMH    MOLCAS    OPER   

              2       6      140.07       700     1000      520     2101     2201     2301   
                                         GEOM     BASIS   MCVARS     RHF      RHF      RHF  

 PROGRAMS   *        TOTAL   RHF-SCF       INT   RHF-SCF       INT   RHF-SCF       INT
 CPU TIMES  *    144373.69  45354.71      2.39  46111.26      2.37  52900.04      2.74
 REAL TIME  *    144844.94 SEC
 DISK USED  *       308.04 MB (local),        1.23 GB (total)
 SF USED    *        15.83 MB
 GA USED    *         0.00 MB       (max)       0.00 MB       (current)
 **********************************************************************************************************************************
 SETTING EB_HF          =      -115.10142391  AU                              
 SETTING E_AB_INT       =        -0.00378124  AU                              

 *** results in hartree
 E_AB_INT         =        -0.00378124 AU
 Molecular orbitals read from record     2301.2  Type=RHF/CANONICAL (state 1.1)
 Occupation numbers read from record     2301.2  Type=RHF/RHF (state 1.1)
 Orbital energies read from record       2301.2  Type=RHF/CANONICAL (state 1.1)
 Redundancy group numbers read from rec  2301.2  Type=RHF/RHF (state 1.1)

 RHF/aug-cc-pV5Z energy=   -115.101423905623

         RHF-SCF         RHF-SCF         RHF-SCF
   -115.10142391   -115.10119249   -230.20639764
 **********************************************************************************************************************************
 Molpro calculation terminated
