 vasp.5.4.1 24Jun15 (build Jan 02 2020 16:21:29) gamma-only                     
  
 executed on           IFC15_impi date 2020.04.24  00:37:44
 running on   32 total cores
 distrk:  each k-point on   32 cores,    1 groups
 distr:  one band on NCORES_PER_BAND=   8 cores,    4 groups


--------------------------------------------------------------------------------------------------------


 INCAR:
 POTCAR:    PAW_PBE C 08Apr2002                   
 POTCAR:    PAW_PBE H 15Jun2001                   
 POTCAR:    PAW_PBE C 08Apr2002                   
   VRHFIN =C: s2p2                                                              
   LEXCH  = PE                                                                  
   EATOM  =   147.1560 eV,   10.8157 Ry                                         
                                                                                
   TITEL  = PAW_PBE C 08Apr2002                                                 
   LULTRA =        F    use ultrasoft PP ?                                      
   IUNSCR =        1    unscreen: 0-lin 1-nonlin 2-no                           
   RPACOR =    1.200    partial core radius                                     
   POMASS =   12.011; ZVAL   =    4.000    mass and valenz                      
   RCORE  =    1.500    outmost cutoff radius                                   
   RWIGS  =    1.630; RWIGS  =    0.863    wigner-seitz radius (au A)           
   ENMAX  =  400.000; ENMIN  =  300.000 eV                                      
   ICORE  =        2    local potential                                         
   LCOR   =        T    correct aug charges                                     
   LPAW   =        T    paw PP                                                  
   EAUG   =  644.873                                                            
   DEXC   =    0.000                                                            
   RMAX   =    1.529    core radius for proj-oper                               
   RAUG   =    1.300    factor for augmentation sphere                          
   RDEP   =    1.501    radius for radial grids                                 
   RDEPT  =    1.300    core radius for aug-charge                              
                                                                                
   Atomic configuration                                                         
    4 entries                                                                   
     n  l   j            E        occ.                                          
     1  0  0.50      -273.3789   2.0000                                         
     2  0  0.50       -13.7508   2.0000                                         
     2  1  0.50        -5.2854   2.0000                                         
     3  2  1.50        -5.4423   0.0000                                         
   Description                                                                  
     l       E           TYP  RCUT    TYP  RCUT                                 
     0    -13.7508458     23  1.200                                             
     0     -8.2022199     23  1.200                                             
     1     -5.2854383     23  1.500                                             
     1     34.0145650     23  1.500                                             
     2     -5.4423304      7  1.500                                             
  local pseudopotential read in
  partial core-charges read in
  partial kinetic energy density read in
  atomic valenz-charges read in
  non local Contribution for L=           0  read in
    real space projection operators read in
  non local Contribution for L=           0  read in
    real space projection operators read in
  non local Contribution for L=           1  read in
    real space projection operators read in
  non local Contribution for L=           1  read in
    real space projection operators read in
    PAW grid and wavefunctions read in
 
   number of l-projection  operators is LMAX  =           4
   number of lm-projection operators is LMMAX =           8
 
 POTCAR:    PAW_PBE H 15Jun2001                   
   VRHFIN =H: ultrasoft test                                                    
   LEXCH  = PE                                                                  
   EATOM  =    12.4884 eV,    0.9179 Ry                                         
                                                                                
   TITEL  = PAW_PBE H 15Jun2001                                                 
   LULTRA =        F    use ultrasoft PP ?                                      
   IUNSCR =        0    unscreen: 0-lin 1-nonlin 2-no                           
   RPACOR =    0.000    partial core radius                                     
   POMASS =    1.000; ZVAL   =    1.000    mass and valenz                      
   RCORE  =    1.100    outmost cutoff radius                                   
   RWIGS  =    0.700; RWIGS  =    0.370    wigner-seitz radius (au A)           
   ENMAX  =  250.000; ENMIN  =  200.000 eV                                      
   RCLOC  =    0.701    cutoff for local pot                                    
   LCOR   =        T    correct aug charges                                     
   LPAW   =        T    paw PP                                                  
   EAUG   =  400.000                                                            
   RMAX   =    1.123    core radius for proj-oper                               
   RAUG   =    1.200    factor for augmentation sphere                          
   RDEP   =    1.112    radius for radial grids                                 
   RDEPT  =    0.926    core radius for aug-charge                              
                                                                                
   Atomic configuration                                                         
    2 entries                                                                   
     n  l   j            E        occ.                                          
     1  0  0.50        -6.4927   1.0000                                         
     2  1  0.50        -3.4015   0.0000                                         
   Description                                                                  
     l       E           TYP  RCUT    TYP  RCUT                                 
     0     -6.4927494     23  1.100                                             
     0      6.8029130     23  1.100                                             
     1     -4.0817478     23  1.100                                             
  local pseudopotential read in
  atomic valenz-charges read in
  non local Contribution for L=           0  read in
    real space projection operators read in
  non local Contribution for L=           0  read in
    real space projection operators read in
  non local Contribution for L=           1  read in
    real space projection operators read in
    PAW grid and wavefunctions read in
 
   number of l-projection  operators is LMAX  =           3
   number of lm-projection operators is LMMAX =           5
 
  PAW_PBE C 08Apr2002                   :
 energy of atom  1       EATOM= -147.1560
 kinetic energy error for atom=    0.0002 (will be added to EATOM!!)
  PAW_PBE H 15Jun2001                   :
 energy of atom  2       EATOM=  -12.4884
 kinetic energy error for atom=    0.0000 (will be added to EATOM!!)
 
 
 POSCAR: C H                                     
  positions in cartesian coordinates
  No initial velocities read in
 exchange correlation table for  LEXCH =        8
   RHO(1)=    0.500       N(1)  =     2000
   RHO(2)=  100.500       N(2)  =     4000
 


--------------------------------------------------------------------------------------------------------


 ion  position               nearest neighbor table
   1  0.000  1.000  0.053-   2 1.09   3 1.09   4 1.09   5 1.09
   2  0.975  0.015  0.043-   1 1.09
   3  0.025  0.015  0.043-   1 1.09
   4  0.000  0.971  0.043-   1 1.09
   5  0.000  0.000  0.084-   1 1.09
 
  LATTYP: Found a simple cubic cell.
 ALAT       =    35.0000000000
  
  Lattice vectors:
  
 A1 = (  35.0000000000,   0.0000000000,   0.0000000000)
 A2 = (   0.0000000000,  35.0000000000,   0.0000000000)
 A3 = (   0.0000000000,   0.0000000000,  35.0000000000)


Analysis of symmetry for initial positions (statically):
=====================================================================
 Subroutine PRICEL returns:
 Original cell was already a primitive cell.
 

 Routine SETGRP: Setting up the symmetry group for a 
 simple cubic supercell.


 Subroutine GETGRP returns: Found  2 space group operations
 (whereof  2 operations were pure point group operations)
 out of a pool of 48 trial point group operations.


The static configuration has the point symmetry C_1h.


Analysis of symmetry for dynamics (positions and initial velocities):
=====================================================================
 Subroutine PRICEL returns:
 Original cell was already a primitive cell.
 

 Routine SETGRP: Setting up the symmetry group for a 
 simple cubic supercell.


 Subroutine GETGRP returns: Found  2 space group operations
 (whereof  2 operations were pure point group operations)
 out of a pool of 48 trial point group operations.


The dynamic configuration has the point symmetry C_1h.
 
 
 KPOINTS: automatic mesh                          

Automatic generation of k-mesh.
Space group operators:
 irot       det(A)        alpha          n_x          n_y          n_z        tau_x        tau_y        tau_z
    1     1.000000     0.000000     1.000000     0.000000     0.000000     0.000000     0.000000     0.000000
    2    -1.000000   180.000000     1.000000     0.000000     0.000000     0.000000     0.000000     0.000000
 
 Subroutine IBZKPT returns following result:
 ===========================================
 
 Found      1 irreducible k-points:
 
 Following reciprocal coordinates:
            Coordinates               Weight
  0.000000  0.000000  0.000000      1.000000
 
 Following cartesian coordinates:
            Coordinates               Weight
  0.000000  0.000000  0.000000      1.000000
 


--------------------------------------------------------------------------------------------------------




 Dimension of arrays:
   k-points           NKPTS =      1   k-points in BZ     NKDIM =      1   number of bands    NBANDS=      8
   number of dos      NEDOS =    301   number of ions     NIONS =      5
   non local maximal  LDIM  =      4   non local SUM 2l+1 LMDIM =      8
   total plane-waves  NPLWV = ******
   max r-space proj   IRMAX =      1   max aug-charges    IRDMAX=  30635
   dimension x,y,z NGX =   480 NGY =  480 NGZ =  480
   dimension x,y,z NGXF=   960 NGYF=  960 NGZF=  960
   support grid    NGXF=   960 NGYF=  960 NGZF=  960
   ions per type =               1   4
 NGX,Y,Z   is equivalent  to a cutoff of  22.80, 22.80, 22.80 a.u.
 NGXF,Y,Z  is equivalent  to a cutoff of  45.60, 45.60, 45.60 a.u.


 I would recommend the setting:
   dimension x,y,z NGX =   457 NGY =  457 NGZ =  457
 SYSTEM =  C                                       
 POSCAR =  C H                                     

 Startparameter for this run:
   NWRITE =      2    write-flag & timer
   PREC   = acc       normal or accurate (medium, high low for compatibility)
   ISTART =      0    job   : 0-new  1-cont  2-samecut
   ICHARG =      2    charge: 1-file 2-atom 10-const
   ISPIN  =      1    spin polarized calculation?
   LNONCOLLINEAR =      F non collinear calculations
   LSORBIT =      F    spin-orbit coupling
   INIWAV =      1    electr: 0-lowe 1-rand  2-diag
   LASPH  =      T    aspherical Exc in radial PAW
   METAGGA=      F    non-selfconsistent MetaGGA calc.

 Electronic Relaxation 1
   ENCUT  = 1600.0 eV 117.60 Ry   10.84 a.u. 114.15114.15114.15*2*pi/ulx,y,z
   ENINI  = 1600.0     initial cutoff
   ENAUG  =  644.9 eV  augmentation charge cutoff
   NELM   =     60;   NELMIN=  2; NELMDL= -5     # of ELM steps 
   EDIFF  = 0.1E-06   stopping-criterion for ELM
   LREAL  =      F    real-space projection
   NLSPLINE    = F    spline interpolate recip. space projectors
   LCOMPAT=      F    compatible to vasp.4.4
   GGA_COMPAT  = T    GGA compatible to vasp.4.4-vasp.4.6
   LMAXPAW     = -100 max onsite density
   LMAXMIX     =    2 max onsite mixed and CHGCAR
   VOSKOWN=      0    Vosko Wilk Nusair interpolation
   ROPT   =    0.00000   0.00000
 Ionic relaxation
   EDIFFG = 0.1E-05   stopping-criterion for IOM
   NSW    =      0    number of steps for IOM
   NBLOCK =      1;   KBLOCK =      1    inner block; outer block 
   IBRION =     -1    ionic relax: 0-MD 1-quasi-New 2-CG
   NFREE  =      0    steps in history (QN), initial steepest desc. (CG)
   ISIF   =      2    stress and relaxation
   IWAVPR =     10    prediction:  0-non 1-charg 2-wave 3-comb
   ISYM   =      2    0-nonsym 1-usesym 2-fastsym
   LCORR  =      T    Harris-Foulkes like correction to forces

   POTIM  = 0.5000    time-step for ionic-motion
   TEIN   =    0.0    initial temperature
   TEBEG  =    0.0;   TEEND  =   0.0 temperature during run
   SMASS  =  -3.00    Nose mass-parameter (am)
   estimated Nose-frequenzy (Omega)   =  0.10E-29 period in steps =****** mass=  -0.280E-25a.u.
   SCALEE = 1.0000    scale energy and forces
   NPACO  =    256;   APACO  = 16.0  distance and # of slots for P.C.
   PSTRESS=    0.0 pullay stress

  Mass of Ions in am
   POMASS =  12.01  1.00
  Ionic Valenz
   ZVAL   =   4.00  1.00
  Atomic Wigner-Seitz radii
   RWIGS  =  -1.00 -1.00
  virtual crystal weights 
   VCA    =   1.00  1.00
   NELECT =       8.0000    total number of electrons
   NUPDOWN=      -1.0000    fix difference up-down

 DOS related values:
   EMIN   =  10.00;   EMAX   =-10.00  energy-range for DOS
   EFERMI =   0.00
   ISMEAR =     0;   SIGMA  =   0.01  broadening in eV -4-tet -1-fermi 0-gaus

 Electronic relaxation 2 (details)
   IALGO  =     38    algorithm
   LDIAG  =      T    sub-space diagonalisation (order eigenvalues)
   LSUBROT=      F    optimize rotation matrix (better conditioning)
   TURBO    =      0    0=normal 1=particle mesh
   IRESTART =      0    0=no restart 2=restart with 2 vectors
   NREBOOT  =      0    no. of reboots
   NMIN     =      0    reboot dimension
   EREF     =   0.00    reference energy to select bands
   IMIX   =      4    mixing-type and parameters
     AMIX     =   0.40;   BMIX     =  1.00
     AMIX_MAG =   1.60;   BMIX_MAG =  1.00
     AMIN     =   0.10
     WC   =   100.;   INIMIX=   1;  MIXPRE=   1;  MAXMIX= -45

 Intra band minimization:
   WEIMIN = 0.0000     energy-eigenvalue tresh-hold
   EBREAK =  0.31E-08  absolut break condition
   DEPER  =   0.30     relativ break condition  

   TIME   =   0.40     timestep for ELM

  volume/ion in A,a.u.               =    8575.00     57866.96
  Fermi-wavevector in a.u.,A,eV,Ry     =   0.093548  0.176781  0.119069  0.008751
  Thomas-Fermi vector in A             =   0.652187
 
 Write flags
   LWAVE  =      T    write WAVECAR
   LCHARG =      T    write CHGCAR
   LVTOT  =      F    write LOCPOT, total local potential
   LVHAR  =      F    write LOCPOT, Hartree potential only
   LELF   =      F    write electronic localiz. function (ELF)
   LORBIT =      0    0 simple, 1 ext, 2 COOP (PROOUT)


 Dipole corrections
   LMONO  =      F    monopole corrections only (constant potential shift)
   LDIPOL =      F    correct potential (dipole corrections)
   IDIPOL =      0    1-x, 2-y, 3-z, 4-all directions 
   EPSILON=  1.0000000 bulk dielectric constant

 Exchange correlation treatment:
   GGA     =    --    GGA type
   LEXCH   =     8    internal setting for exchange type
   VOSKOWN=      0    Vosko Wilk Nusair interpolation
   LHFCALC =     F    Hartree Fock is set to
   LHFONE  =     F    Hartree Fock one center treatment
   AEXX    =    0.0000 exact exchange contribution

 Linear response parameters
   LEPSILON=     F    determine dielectric tensor
   LRPA    =     F    only Hartree local field effects (RPA)
   LNABLA  =     F    use nabla operator in PAW spheres
   LVEL    =     F    velocity operator in full k-point grid
   LINTERFAST=   F  fast interpolation
   KINTER  =     0    interpolate to denser k-point grid
   CSHIFT  =0.1000    complex shift for real part using Kramers Kronig
   OMEGAMAX=  -1.0    maximum frequency
   DEG_THRESHOLD= 0.2000000E-02 threshold for treating states as degnerate
   RTIME   =    0.100 relaxation time in fs

 Orbital magnetization related:
   ORBITALMAG=     F  switch on orbital magnetization
   LCHIMAG   =     F  perturbation theory with respect to B field
   DQ        =  0.001000  dq finite difference perturbation B field



--------------------------------------------------------------------------------------------------------


 Static calculation
 charge density and potential will be updated during run
 non-spin polarized calculation
 Variant of blocked Davidson
 Davidson routine will perform the subspace rotation
 perform sub-space diagonalisation
    after iterative eigenvector-optimisation
 modified Broyden-mixing scheme, WC =      100.0
 initial mixing is a Kerker type mixing with AMIX =  0.4000 and BMIX =      1.0000
 Hartree-type preconditioning will be used
 using additional bands            4
 reciprocal scheme for non local part
 use partial core corrections
 calculate Harris-corrections to forces 
   (improved forces if not selfconsistent)
 use gradient corrections 
 use of overlap-Matrix (Vanderbilt PP)
 Gauss-broadening in eV      SIGMA  =   0.01


--------------------------------------------------------------------------------------------------------


  energy-cutoff  :     1600.00
  volume of cell :    42875.00
      direct lattice vectors                 reciprocal lattice vectors
    35.000000000  0.000000000  0.000000000     0.028571429  0.000000000  0.000000000
     0.000000000 35.000000000  0.000000000     0.000000000  0.028571429  0.000000000
     0.000000000  0.000000000 35.000000000     0.000000000  0.000000000  0.028571429

  length of vectors
    35.000000000 35.000000000 35.000000000     0.028571429  0.028571429  0.028571429


 
 k-points in units of 2pi/SCALE and weight: automatic mesh                          
   0.00000000  0.00000000  0.00000000       1.000
 
 k-points in reciprocal lattice and weights: automatic mesh                          
   0.00000000  0.00000000  0.00000000       1.000
 
 position of ions in fractional coordinates (direct lattice) 
   0.00000000  0.99999600  0.05311889
   0.97461283  0.01465886  0.04270529
   0.02538717  0.01465886  0.04270529
   0.00000000  0.97067603  0.04271051
   0.00000000  0.00000254  0.08423669
 
 position of ions in cartesian coordinates  (Angst):
   0.00000000 34.99986000  1.85916100
  34.11144900  0.51306000  1.49468500
   0.88855100  0.51306000  1.49468500
   0.00000000 33.97366100  1.49486800
   0.00000000  0.00008900  2.94828400
 


--------------------------------------------------------------------------------------------------------


 use parallel FFT for wavefunctions z direction half grid
 k-point  1 :   0.0000 0.0000 0.0000  plane waves: 3115599

 maximum and minimum number of plane-waves per node :    389462   389421

 maximum number of plane-waves:   3115599
 maximum index in each direction: 
   IXMAX=  114   IYMAX=  114   IZMAX=  114
   IXMIN= -114   IYMIN= -114   IZMIN=    0

 NGX is ok and might be reduce to 458
 NGY is ok and might be reduce to 458
 NGZ is ok and might be reduce to 458

 parallel 3D FFT for wavefunctions:
    minimum data exchange during FFTs selected (reduces bandwidth)
 parallel 3D FFT for charge:
    minimum data exchange during FFTs selected (reduces bandwidth)


 total amount of memory used by VASP on root node  3442701. kBytes
========================================================================

   base      :      30000. kBytes
   nonl-proj :      81000. kBytes
   fftplans  :    1215227. kBytes
   grid      :    2104012. kBytes
   one-center:          1. kBytes
   wavefun   :      12461. kBytes
 
     INWAV:  cpu time    0.0000: real time    0.0000
 Broyden mixing: mesh for mixing (old mesh)
   NGX =229   NGY =229   NGZ =229
  (NGX  =960   NGY  =960   NGZ  =960)
  gives a total of ****** points

 initial charge density was supplied:
 charge density of overlapping atoms calculated
 number of electron       8.0000000 magnetization 
 keeping initial charge density in first step


--------------------------------------------------------------------------------------------------------


 Maximum index for augmentation-charges         1153 (set IRDMAX)


--------------------------------------------------------------------------------------------------------


 First call to EWALD:  gamma=   0.051
 Maximum number of real-space cells 3x 3x 3
 Maximum number of reciprocal cells 3x 3x 3

 FEWALD executed in parallel
    FEWALD:  cpu time    0.0014: real time    0.0014


----------------------------------------- Iteration    1(   1)  ---------------------------------------


    POTLOK:  cpu time   14.8197: real time   14.8567
    SETDIJ:  cpu time    0.1818: real time    0.1823
     EDDAV:  cpu time    3.9366: real time    3.9495
       DOS:  cpu time    0.0004: real time    0.0004
    --------------------------------------------
      LOOP:  cpu time   18.9406: real time   18.9935

 eigenvalue-minimisations  :    24
 total energy-change (2. order) : 0.5467142E+02  (-0.1258784E+03)
 number of electron       8.0000000 magnetization 
 augmentation part        8.0000000 magnetization 

 Free energy of the ion-electron system (eV)
  ---------------------------------------------------
  alpha Z        PSCENC =         0.00565016
  Ewald energy   TEWEN  =       222.82964911
  -Hartree energ DENC   =      -335.26388549
  -exchange      EXHF   =         0.00000000
  -V(xc)+E(xc)   XCENC  =        22.05391230
  PAW double counting   =       117.05815612     -117.66307307
  entropy T*S    EENTRO =        -0.00000000
  eigenvalues    EBANDS =       -51.45827104
  atomic energy  EATOM  =       197.10928552
  Solvation  Ediel_sol  =         0.00000000
  ---------------------------------------------------
  free energy    TOTEN  =        54.67142361 eV

  energy without entropy =       54.67142361  energy(sigma->0) =       54.67142361


--------------------------------------------------------------------------------------------------------




----------------------------------------- Iteration    1(   2)  ---------------------------------------


     EDDAV:  cpu time    4.8105: real time    4.8267
       DOS:  cpu time    0.0002: real time    0.0003
    --------------------------------------------
      LOOP:  cpu time    4.8131: real time    4.8320

 eigenvalue-minimisations  :    32
 total energy-change (2. order) :-0.4937661E+02  (-0.4937661E+02)
 number of electron       8.0000000 magnetization 
 augmentation part        8.0000000 magnetization 

 Free energy of the ion-electron system (eV)
  ---------------------------------------------------
  alpha Z        PSCENC =         0.00565016
  Ewald energy   TEWEN  =       222.82964911
  -Hartree energ DENC   =      -335.26388549
  -exchange      EXHF   =         0.00000000
  -V(xc)+E(xc)   XCENC  =        22.05391230
  PAW double counting   =       117.05815612     -117.66307307
  entropy T*S    EENTRO =        -0.00000000
  eigenvalues    EBANDS =      -100.83488202
  atomic energy  EATOM  =       197.10928552
  Solvation  Ediel_sol  =         0.00000000
  ---------------------------------------------------
  free energy    TOTEN  =         5.29481264 eV

  energy without entropy =        5.29481264  energy(sigma->0) =        5.29481264


--------------------------------------------------------------------------------------------------------




----------------------------------------- Iteration    1(   3)  ---------------------------------------


     EDDAV:  cpu time    3.8537: real time    3.8661
       DOS:  cpu time    0.0004: real time    0.0004
    --------------------------------------------
      LOOP:  cpu time    3.8572: real time    3.8723

 eigenvalue-minimisations  :    24
 total energy-change (2. order) :-0.3057030E+02  (-0.3057030E+02)
 number of electron       8.0000000 magnetization 
 augmentation part        8.0000000 magnetization 

 Free energy of the ion-electron system (eV)
  ---------------------------------------------------
  alpha Z        PSCENC =         0.00565016
  Ewald energy   TEWEN  =       222.82964911
  -Hartree energ DENC   =      -335.26388549
  -exchange      EXHF   =         0.00000000
  -V(xc)+E(xc)   XCENC  =        22.05391230
  PAW double counting   =       117.05815612     -117.66307307
  entropy T*S    EENTRO =        -0.00000000
  eigenvalues    EBANDS =      -131.40518396
  atomic energy  EATOM  =       197.10928552
  Solvation  Ediel_sol  =         0.00000000
  ---------------------------------------------------
  free energy    TOTEN  =       -25.27548930 eV

  energy without entropy =      -25.27548930  energy(sigma->0) =      -25.27548930


--------------------------------------------------------------------------------------------------------




----------------------------------------- Iteration    1(   4)  ---------------------------------------


     EDDAV:  cpu time    2.9056: real time    2.9146
       DOS:  cpu time    0.0002: real time    0.0002
    --------------------------------------------
      LOOP:  cpu time    2.9082: real time    2.9193

 eigenvalue-minimisations  :    16
 total energy-change (2. order) :-0.2362428E+01  (-0.2362428E+01)
 number of electron       8.0000000 magnetization 
 augmentation part        8.0000000 magnetization 

 Free energy of the ion-electron system (eV)
  ---------------------------------------------------
  alpha Z        PSCENC =         0.00565016
  Ewald energy   TEWEN  =       222.82964911
  -Hartree energ DENC   =      -335.26388549
  -exchange      EXHF   =         0.00000000
  -V(xc)+E(xc)   XCENC  =        22.05391230
  PAW double counting   =       117.05815612     -117.66307307
  entropy T*S    EENTRO =        -0.00000000
  eigenvalues    EBANDS =      -133.76761156
  atomic energy  EATOM  =       197.10928552
  Solvation  Ediel_sol  =         0.00000000
  ---------------------------------------------------
  free energy    TOTEN  =       -27.63791690 eV

  energy without entropy =      -27.63791690  energy(sigma->0) =      -27.63791690


--------------------------------------------------------------------------------------------------------




----------------------------------------- Iteration    1(   5)  ---------------------------------------


     EDDAV:  cpu time    4.8111: real time    4.8269
       DOS:  cpu time    0.0003: real time    0.0003
    CHARGE:  cpu time    8.2821: real time    8.3055
    MIXING:  cpu time    0.4134: real time    0.4145
    --------------------------------------------
      LOOP:  cpu time   13.5094: real time   13.5523

 eigenvalue-minimisations  :    32
 total energy-change (2. order) :-0.7659040E-01  (-0.7659040E-01)
 number of electron       8.0000000 magnetization 
 augmentation part        0.2307601 magnetization 

 Broyden mixing:
  rms(total) = 0.88754E+00    rms(broyden)= 0.88754E+00
  rms(prec ) = 0.92412E+00
  weight for this iteration     100.00

 Free energy of the ion-electron system (eV)
  ---------------------------------------------------
  alpha Z        PSCENC =         0.00565016
  Ewald energy   TEWEN  =       222.82964911
  -Hartree energ DENC   =      -335.26388549
  -exchange      EXHF   =         0.00000000
  -V(xc)+E(xc)   XCENC  =        22.05391230
  PAW double counting   =       117.05815612     -117.66307307
  entropy T*S    EENTRO =        -0.00000000
  eigenvalues    EBANDS =      -133.84420196
  atomic energy  EATOM  =       197.10928552
  Solvation  Ediel_sol  =         0.00000000
  ---------------------------------------------------
  free energy    TOTEN  =       -27.71450730 eV

  energy without entropy =      -27.71450730  energy(sigma->0) =      -27.71450730


--------------------------------------------------------------------------------------------------------




----------------------------------------- Iteration    1(   6)  ---------------------------------------


    POTLOK:  cpu time   14.6507: real time   14.6866
    SETDIJ:  cpu time    0.1866: real time    0.1871
     EDDAV:  cpu time    3.8639: real time    3.8768
       DOS:  cpu time    0.0004: real time    0.0004
    CHARGE:  cpu time    8.2597: real time    8.2825
    MIXING:  cpu time    0.4292: real time    0.4303
    --------------------------------------------
      LOOP:  cpu time   27.3927: real time   27.4687

 eigenvalue-minimisations  :    24
 total energy-change (2. order) : 0.2985611E+01  (-0.9102307E+00)
 number of electron       8.0000000 magnetization 
 augmentation part        0.2013795 magnetization 

 Broyden mixing:
  rms(total) = 0.45245E+00    rms(broyden)= 0.45245E+00
  rms(prec ) = 0.46340E+00
  weight for this iteration     100.00

 eigenvalues of (default mixing * dielectric matrix)
  average eigenvalue GAMMA=   1.1981
  1.1981

 Free energy of the ion-electron system (eV)
  ---------------------------------------------------
  alpha Z        PSCENC =         0.00565016
  Ewald energy   TEWEN  =       222.82964911
  -Hartree energ DENC   =      -355.47990377
  -exchange      EXHF   =         0.00000000
  -V(xc)+E(xc)   XCENC  =        23.27155203
  PAW double counting   =       239.44670843     -240.23733263
  entropy T*S    EENTRO =        -0.00000000
  eigenvalues    EBANDS =      -111.67450472
  atomic energy  EATOM  =       197.10928552
  Solvation  Ediel_sol  =         0.00000000
  ---------------------------------------------------
  free energy    TOTEN  =       -24.72889585 eV

  energy without entropy =      -24.72889585  energy(sigma->0) =      -24.72889585


--------------------------------------------------------------------------------------------------------




----------------------------------------- Iteration    1(   7)  ---------------------------------------


    POTLOK:  cpu time   14.6130: real time   14.6488
    SETDIJ:  cpu time    0.1851: real time    0.1855
     EDDAV:  cpu time    3.8575: real time    3.8704
       DOS:  cpu time    0.0001: real time    0.0001
    CHARGE:  cpu time    8.2575: real time    8.2805
    MIXING:  cpu time    0.4389: real time    0.4400
    --------------------------------------------
      LOOP:  cpu time   27.3542: real time   27.4303

 eigenvalue-minimisations  :    24
 total energy-change (2. order) : 0.4934365E+00  (-0.7000794E-01)
 number of electron       8.0000000 magnetization 
 augmentation part        0.1932291 magnetization 

 Broyden mixing:
  rms(total) = 0.23596E+00    rms(broyden)= 0.23596E+00
  rms(prec ) = 0.24110E+00
  weight for this iteration     100.00

 eigenvalues of (default mixing * dielectric matrix)
  average eigenvalue GAMMA=   1.6833
  1.2458  2.1208

 Free energy of the ion-electron system (eV)
  ---------------------------------------------------
  alpha Z        PSCENC =         0.00565016
  Ewald energy   TEWEN  =       222.82964911
  -Hartree energ DENC   =      -365.42673114
  -exchange      EXHF   =         0.00000000
  -V(xc)+E(xc)   XCENC  =        24.01593222
  PAW double counting   =       361.82781370     -362.64588326
  entropy T*S    EENTRO =        -0.00000000
  eigenvalues    EBANDS =      -101.95117571
  atomic energy  EATOM  =       197.10928552
  Solvation  Ediel_sol  =         0.00000000
  ---------------------------------------------------
  free energy    TOTEN  =       -24.23545939 eV

  energy without entropy =      -24.23545939  energy(sigma->0) =      -24.23545939


--------------------------------------------------------------------------------------------------------




----------------------------------------- Iteration    1(   8)  ---------------------------------------


    POTLOK:  cpu time   14.6492: real time   14.6851
    SETDIJ:  cpu time    0.1804: real time    0.1809
     EDDAV:  cpu time    2.9042: real time    2.9137
       DOS:  cpu time    0.0003: real time    0.0003
    CHARGE:  cpu time    8.2433: real time    8.2663
    MIXING:  cpu time    0.4518: real time    0.4529
    --------------------------------------------
      LOOP:  cpu time   26.4312: real time   26.5040

 eigenvalue-minimisations  :    16
 total energy-change (2. order) : 0.1783363E+00  (-0.1871538E-01)
 number of electron       8.0000000 magnetization 
 augmentation part        0.1902178 magnetization 

 Broyden mixing:
  rms(total) = 0.28324E-01    rms(broyden)= 0.28324E-01
  rms(prec ) = 0.31954E-01
  weight for this iteration     100.00

 eigenvalues of (default mixing * dielectric matrix)
  average eigenvalue GAMMA=   1.5670
  2.1727  1.0858  1.4427

 Free energy of the ion-electron system (eV)
  ---------------------------------------------------
  alpha Z        PSCENC =         0.00565016
  Ewald energy   TEWEN  =       222.82964911
  -Hartree energ DENC   =      -372.81981436
  -exchange      EXHF   =         0.00000000
  -V(xc)+E(xc)   XCENC  =        24.65713566
  PAW double counting   =       475.99242261     -476.79933892
  entropy T*S    EENTRO =        -0.00000000
  eigenvalues    EBANDS =       -95.03211287
  atomic energy  EATOM  =       197.10928552
  Solvation  Ediel_sol  =         0.00000000
  ---------------------------------------------------
  free energy    TOTEN  =       -24.05712308 eV

  energy without entropy =      -24.05712308  energy(sigma->0) =      -24.05712308


--------------------------------------------------------------------------------------------------------




----------------------------------------- Iteration    1(   9)  ---------------------------------------


    POTLOK:  cpu time   14.6719: real time   14.7079
    SETDIJ:  cpu time    0.1864: real time    0.1869
     EDDAV:  cpu time    3.8593: real time    3.8724
       DOS:  cpu time    0.0003: real time    0.0003
    CHARGE:  cpu time    8.2372: real time    8.2601
    MIXING:  cpu time    0.4610: real time    0.4621
    --------------------------------------------
      LOOP:  cpu time   27.4181: real time   27.4942

 eigenvalue-minimisations  :    24
 total energy-change (2. order) : 0.8192973E-02  (-0.3597088E-03)
 number of electron       8.0000000 magnetization 
 augmentation part        0.1899170 magnetization 

 Broyden mixing:
  rms(total) = 0.17127E-01    rms(broyden)= 0.17127E-01
  rms(prec ) = 0.20052E-01
  weight for this iteration     100.00

 eigenvalues of (default mixing * dielectric matrix)
  average eigenvalue GAMMA=   1.9372
  3.1776  2.4011  1.2392  0.9309

 Free energy of the ion-electron system (eV)
  ---------------------------------------------------
  alpha Z        PSCENC =         0.00565016
  Ewald energy   TEWEN  =       222.82964911
  -Hartree energ DENC   =      -374.14528468
  -exchange      EXHF   =         0.00000000
  -V(xc)+E(xc)   XCENC  =        24.73675493
  PAW double counting   =       479.56805649     -480.37157247
  entropy T*S    EENTRO =        -0.00000000
  eigenvalues    EBANDS =       -93.78146918
  atomic energy  EATOM  =       197.10928552
  Solvation  Ediel_sol  =         0.00000000
  ---------------------------------------------------
  free energy    TOTEN  =       -24.04893010 eV

  energy without entropy =      -24.04893010  energy(sigma->0) =      -24.04893010


--------------------------------------------------------------------------------------------------------




----------------------------------------- Iteration    1(  10)  ---------------------------------------


    POTLOK:  cpu time   14.6652: real time   14.7012
    SETDIJ:  cpu time    0.1806: real time    0.1810
     EDDAV:  cpu time    2.9036: real time    2.9127
       DOS:  cpu time    0.0003: real time    0.0003
    CHARGE:  cpu time    8.2486: real time    8.2714
    MIXING:  cpu time    0.4723: real time    0.4734
    --------------------------------------------
      LOOP:  cpu time   26.4726: real time   26.5447

 eigenvalue-minimisations  :    16
 total energy-change (2. order) : 0.8999840E-02  (-0.6383910E-03)
 number of electron       8.0000000 magnetization 
 augmentation part        0.1895580 magnetization 

 Broyden mixing:
  rms(total) = 0.55843E-02    rms(broyden)= 0.55843E-02
  rms(prec ) = 0.73734E-02
  weight for this iteration     100.00

 eigenvalues of (default mixing * dielectric matrix)
  average eigenvalue GAMMA=   1.7104
  3.0815  2.3733  1.2285  0.9343  0.9343

 Free energy of the ion-electron system (eV)
  ---------------------------------------------------
  alpha Z        PSCENC =         0.00565016
  Ewald energy   TEWEN  =       222.82964911
  -Hartree energ DENC   =      -376.06782410
  -exchange      EXHF   =         0.00000000
  -V(xc)+E(xc)   XCENC  =        24.82148462
  PAW double counting   =       472.25238581     -473.05330546
  entropy T*S    EENTRO =        -0.00000000
  eigenvalues    EBANDS =       -91.93725594
  atomic energy  EATOM  =       197.10928552
  Solvation  Ediel_sol  =         0.00000000
  ---------------------------------------------------
  free energy    TOTEN  =       -24.03993026 eV

  energy without entropy =      -24.03993026  energy(sigma->0) =      -24.03993026


--------------------------------------------------------------------------------------------------------




----------------------------------------- Iteration    1(  11)  ---------------------------------------


    POTLOK:  cpu time   14.6912: real time   14.7272
    SETDIJ:  cpu time    0.1795: real time    0.1800
     EDDAV:  cpu time    3.8598: real time    3.8729
       DOS:  cpu time    0.0002: real time    0.0002
    CHARGE:  cpu time    8.2722: real time    8.2951
    MIXING:  cpu time    0.4891: real time    0.4903
    --------------------------------------------
      LOOP:  cpu time   27.4941: real time   27.5706

 eigenvalue-minimisations  :    24
 total energy-change (2. order) :-0.2572379E-02  (-0.3221833E-04)
 number of electron       8.0000000 magnetization 
 augmentation part        0.1893935 magnetization 

 Broyden mixing:
  rms(total) = 0.40940E-02    rms(broyden)= 0.40940E-02
  rms(prec ) = 0.57811E-02
  weight for this iteration     100.00

 eigenvalues of (default mixing * dielectric matrix)
  average eigenvalue GAMMA=   2.1479
  4.6060  2.8976  2.2899  1.2636  0.9717  0.8588

 Free energy of the ion-electron system (eV)
  ---------------------------------------------------
  alpha Z        PSCENC =         0.00565016
  Ewald energy   TEWEN  =       222.82964911
  -Hartree energ DENC   =      -376.29247071
  -exchange      EXHF   =         0.00000000
  -V(xc)+E(xc)   XCENC  =        24.82833109
  PAW double counting   =       473.36328059     -474.16455319
  entropy T*S    EENTRO =        -0.00000000
  eigenvalues    EBANDS =       -91.72167522
  atomic energy  EATOM  =       197.10928552
  Solvation  Ediel_sol  =         0.00000000
  ---------------------------------------------------
  free energy    TOTEN  =       -24.04250264 eV

  energy without entropy =      -24.04250264  energy(sigma->0) =      -24.04250264


--------------------------------------------------------------------------------------------------------




----------------------------------------- Iteration    1(  12)  ---------------------------------------


    POTLOK:  cpu time   14.6932: real time   14.7293
    SETDIJ:  cpu time    0.1802: real time    0.1807
     EDDAV:  cpu time    3.8535: real time    3.8659
       DOS:  cpu time    0.0003: real time    0.0003
    CHARGE:  cpu time    8.2496: real time    8.2724
    MIXING:  cpu time    0.5008: real time    0.5020
    --------------------------------------------
      LOOP:  cpu time   27.4797: real time   27.5552

 eigenvalue-minimisations  :    24
 total energy-change (2. order) :-0.4869085E-02  (-0.1007910E-03)
 number of electron       8.0000000 magnetization 
 augmentation part        0.1893015 magnetization 

 Broyden mixing:
  rms(total) = 0.20444E-02    rms(broyden)= 0.20444E-02
  rms(prec ) = 0.26212E-02
  weight for this iteration     100.00

 eigenvalues of (default mixing * dielectric matrix)
  average eigenvalue GAMMA=   2.1573
  4.8652  3.1620  2.3064  1.5503  1.3411  1.0155  0.8610

 Free energy of the ion-electron system (eV)
  ---------------------------------------------------
  alpha Z        PSCENC =         0.00565016
  Ewald energy   TEWEN  =       222.82964911
  -Hartree energ DENC   =      -377.02882241
  -exchange      EXHF   =         0.00000000
  -V(xc)+E(xc)   XCENC  =        24.84378708
  PAW double counting   =       471.09183695     -471.89256004
  entropy T*S    EENTRO =        -0.00000000
  eigenvalues    EBANDS =       -91.00619811
  atomic energy  EATOM  =       197.10928552
  Solvation  Ediel_sol  =         0.00000000
  ---------------------------------------------------
  free energy    TOTEN  =       -24.04737173 eV

  energy without entropy =      -24.04737173  energy(sigma->0) =      -24.04737173


--------------------------------------------------------------------------------------------------------




----------------------------------------- Iteration    1(  13)  ---------------------------------------


    POTLOK:  cpu time   14.7185: real time   14.7546
    SETDIJ:  cpu time    0.1844: real time    0.1848
     EDDAV:  cpu time    4.8038: real time    4.8192
       DOS:  cpu time    0.0002: real time    0.0002
    CHARGE:  cpu time    8.2395: real time    8.2622
    MIXING:  cpu time    0.5175: real time    0.5188
    --------------------------------------------
      LOOP:  cpu time   28.4661: real time   28.5446

 eigenvalue-minimisations  :    32
 total energy-change (2. order) :-0.3259730E-02  (-0.5551150E-04)
 number of electron       8.0000000 magnetization 
 augmentation part        0.1891577 magnetization 

 Broyden mixing:
  rms(total) = 0.21562E-02    rms(broyden)= 0.21562E-02
  rms(prec ) = 0.24434E-02
  weight for this iteration     100.00

 eigenvalues of (default mixing * dielectric matrix)
  average eigenvalue GAMMA=   2.4536
  6.3184  4.2491  2.6187  2.3970  1.2355  0.9972  0.9489  0.8640

 Free energy of the ion-electron system (eV)
  ---------------------------------------------------
  alpha Z        PSCENC =         0.00565016
  Ewald energy   TEWEN  =       222.82964911
  -Hartree energ DENC   =      -377.18120590
  -exchange      EXHF   =         0.00000000
  -V(xc)+E(xc)   XCENC  =        24.84356598
  PAW double counting   =       471.66784800     -472.46919163
  entropy T*S    EENTRO =        -0.00000000
  eigenvalues    EBANDS =       -90.85623271
  atomic energy  EATOM  =       197.10928552
  Solvation  Ediel_sol  =         0.00000000
  ---------------------------------------------------
  free energy    TOTEN  =       -24.05063146 eV

  energy without entropy =      -24.05063146  energy(sigma->0) =      -24.05063146


--------------------------------------------------------------------------------------------------------




----------------------------------------- Iteration    1(  14)  ---------------------------------------


    POTLOK:  cpu time   14.6960: real time   14.7320
    SETDIJ:  cpu time    0.1831: real time    0.1836
     EDDAV:  cpu time    2.9025: real time    2.9120
       DOS:  cpu time    0.0001: real time    0.0001
    CHARGE:  cpu time    8.2670: real time    8.2899
    MIXING:  cpu time    0.5294: real time    0.5307
    --------------------------------------------
      LOOP:  cpu time   26.5803: real time   26.6533

 eigenvalue-minimisations  :    16
 total energy-change (2. order) :-0.2703914E-02  (-0.5539605E-04)
 number of electron       8.0000000 magnetization 
 augmentation part        0.1892292 magnetization 

 Broyden mixing:
  rms(total) = 0.88846E-03    rms(broyden)= 0.88846E-03
  rms(prec ) = 0.99636E-03
  weight for this iteration     100.00

 eigenvalues of (default mixing * dielectric matrix)
  average eigenvalue GAMMA=   2.3143
  6.4106  4.1064  2.7284  2.2399  1.2717  1.2717  1.0476  0.8759  0.8759

 Free energy of the ion-electron system (eV)
  ---------------------------------------------------
  alpha Z        PSCENC =         0.00565016
  Ewald energy   TEWEN  =       222.82964911
  -Hartree energ DENC   =      -377.17890664
  -exchange      EXHF   =         0.00000000
  -V(xc)+E(xc)   XCENC  =        24.83546537
  PAW double counting   =       471.66249331     -472.46304014
  entropy T*S    EENTRO =        -0.00000000
  eigenvalues    EBANDS =       -90.85393207
  atomic energy  EATOM  =       197.10928552
  Solvation  Ediel_sol  =         0.00000000
  ---------------------------------------------------
  free energy    TOTEN  =       -24.05333537 eV

  energy without entropy =      -24.05333537  energy(sigma->0) =      -24.05333537


--------------------------------------------------------------------------------------------------------




----------------------------------------- Iteration    1(  15)  ---------------------------------------


    POTLOK:  cpu time   15.0080: real time   15.0447
    SETDIJ:  cpu time    0.1796: real time    0.1800
     EDDAV:  cpu time    5.3602: real time    5.3774
       DOS:  cpu time    0.0002: real time    0.0002
    CHARGE:  cpu time    8.2076: real time    8.2305
    MIXING:  cpu time    0.5603: real time    0.5617
    --------------------------------------------
      LOOP:  cpu time   29.3180: real time   29.3995

 eigenvalue-minimisations  :    32
 total energy-change (2. order) :-0.4121814E-03  (-0.3360872E-05)
 number of electron       8.0000000 magnetization 
 augmentation part        0.1892235 magnetization 

 Broyden mixing:
  rms(total) = 0.12662E-02    rms(broyden)= 0.12662E-02
  rms(prec ) = 0.13165E-02
  weight for this iteration     100.00

 eigenvalues of (default mixing * dielectric matrix)
  average eigenvalue GAMMA=   2.6007
  7.9003  4.5746  3.7605  2.5321  2.3327  1.2291  1.0380  0.9378  0.8510  0.8510

 Free energy of the ion-electron system (eV)
  ---------------------------------------------------
  alpha Z        PSCENC =         0.00565016
  Ewald energy   TEWEN  =       222.82964911
  -Hartree energ DENC   =      -377.23455849
  -exchange      EXHF   =         0.00000000
  -V(xc)+E(xc)   XCENC  =        24.83904177
  PAW double counting   =       472.02460554     -472.82510454
  entropy T*S    EENTRO =        -0.00000000
  eigenvalues    EBANDS =       -90.80231663
  atomic energy  EATOM  =       197.10928552
  Solvation  Ediel_sol  =         0.00000000
  ---------------------------------------------------
  free energy    TOTEN  =       -24.05374755 eV

  energy without entropy =      -24.05374755  energy(sigma->0) =      -24.05374755


--------------------------------------------------------------------------------------------------------




----------------------------------------- Iteration    1(  16)  ---------------------------------------


    POTLOK:  cpu time   14.8173: real time   14.8536
    SETDIJ:  cpu time    0.1782: real time    0.1787
     EDDAV:  cpu time    5.3444: real time    5.3622
       DOS:  cpu time    0.0001: real time    0.0001
    CHARGE:  cpu time    8.1994: real time    8.2221
    MIXING:  cpu time    0.5774: real time    0.5788
    --------------------------------------------
      LOOP:  cpu time   29.1189: real time   29.2002

 eigenvalue-minimisations  :    32
 total energy-change (2. order) :-0.6601724E-03  (-0.4916546E-05)
 number of electron       8.0000000 magnetization 
 augmentation part        0.1892039 magnetization 

 Broyden mixing:
  rms(total) = 0.29804E-03    rms(broyden)= 0.29804E-03
  rms(prec ) = 0.32636E-03
  weight for this iteration     100.00

 eigenvalues of (default mixing * dielectric matrix)
  average eigenvalue GAMMA=   2.6160
  8.0203  5.2823  3.0918  3.0918  2.3394  1.9336  1.2153  1.0778  0.9244  0.9244
  0.8746

 Free energy of the ion-electron system (eV)
  ---------------------------------------------------
  alpha Z        PSCENC =         0.00565016
  Ewald energy   TEWEN  =       222.82964911
  -Hartree energ DENC   =      -377.26033867
  -exchange      EXHF   =         0.00000000
  -V(xc)+E(xc)   XCENC  =        24.83801301
  PAW double counting   =       471.32759643     -472.12831665
  entropy T*S    EENTRO =        -0.00000000
  eigenvalues    EBANDS =       -90.77594665
  atomic energy  EATOM  =       197.10928552
  Solvation  Ediel_sol  =         0.00000000
  ---------------------------------------------------
  free energy    TOTEN  =       -24.05440772 eV

  energy without entropy =      -24.05440772  energy(sigma->0) =      -24.05440772


--------------------------------------------------------------------------------------------------------




----------------------------------------- Iteration    1(  17)  ---------------------------------------


    POTLOK:  cpu time   14.8069: real time   14.8432
    SETDIJ:  cpu time    0.1777: real time    0.1782
     EDDAV:  cpu time    5.3407: real time    5.3578
       DOS:  cpu time    0.0001: real time    0.0001
    CHARGE:  cpu time    8.1748: real time    8.1973
    MIXING:  cpu time    0.5976: real time    0.5990
    --------------------------------------------
      LOOP:  cpu time   29.1000: real time   29.1803

 eigenvalue-minimisations  :    32
 total energy-change (2. order) :-0.1349797E-03  (-0.3201928E-06)
 number of electron       8.0000000 magnetization 
 augmentation part        0.1892203 magnetization 

 Broyden mixing:
  rms(total) = 0.33876E-03    rms(broyden)= 0.33876E-03
  rms(prec ) = 0.35394E-03
  weight for this iteration     100.00

 eigenvalues of (default mixing * dielectric matrix)
  average eigenvalue GAMMA=   2.6916
  8.7458  5.6338  4.0131  3.0992  2.5597  2.2983  1.2355  1.0218  0.9867  0.8665
  0.9195  0.9195

 Free energy of the ion-electron system (eV)
  ---------------------------------------------------
  alpha Z        PSCENC =         0.00565016
  Ewald energy   TEWEN  =       222.82964911
  -Hartree energ DENC   =      -377.24151126
  -exchange      EXHF   =         0.00000000
  -V(xc)+E(xc)   XCENC  =        24.83652320
  PAW double counting   =       471.46856002     -472.26920924
  entropy T*S    EENTRO =        -0.00000000
  eigenvalues    EBANDS =       -90.79349024
  atomic energy  EATOM  =       197.10928552
  Solvation  Ediel_sol  =         0.00000000
  ---------------------------------------------------
  free energy    TOTEN  =       -24.05454270 eV

  energy without entropy =      -24.05454270  energy(sigma->0) =      -24.05454270


--------------------------------------------------------------------------------------------------------




----------------------------------------- Iteration    1(  18)  ---------------------------------------


    POTLOK:  cpu time   14.7921: real time   14.8284
    SETDIJ:  cpu time    0.1784: real time    0.1789
     EDDAV:  cpu time    3.2254: real time    3.2362
       DOS:  cpu time    0.0003: real time    0.0003
    CHARGE:  cpu time    8.1922: real time    8.2148
    MIXING:  cpu time    0.6189: real time    0.6204
    --------------------------------------------
      LOOP:  cpu time   27.0093: real time   27.0840

 eigenvalue-minimisations  :    16
 total energy-change (2. order) :-0.1029548E-03  (-0.2466318E-06)
 number of electron       8.0000000 magnetization 
 augmentation part        0.1892122 magnetization 

 Broyden mixing:
  rms(total) = 0.86134E-04    rms(broyden)= 0.86134E-04
  rms(prec ) = 0.92766E-04
  weight for this iteration     100.00

 eigenvalues of (default mixing * dielectric matrix)
  average eigenvalue GAMMA=   2.8118
  9.1440  5.9462  4.5196  3.3094  2.8488  2.4496  2.3561  1.2354  1.0439  0.9900
  0.8685  0.9211  0.9211

 Free energy of the ion-electron system (eV)
  ---------------------------------------------------
  alpha Z        PSCENC =         0.00565016
  Ewald energy   TEWEN  =       222.82964911
  -Hartree energ DENC   =      -377.25223265
  -exchange      EXHF   =         0.00000000
  -V(xc)+E(xc)   XCENC  =        24.83646314
  PAW double counting   =       471.47664928     -472.27734334
  entropy T*S    EENTRO =        -0.00000000
  eigenvalues    EBANDS =       -90.78276689
  atomic energy  EATOM  =       197.10928552
  Solvation  Ediel_sol  =         0.00000000
  ---------------------------------------------------
  free energy    TOTEN  =       -24.05464566 eV

  energy without entropy =      -24.05464566  energy(sigma->0) =      -24.05464566


--------------------------------------------------------------------------------------------------------




----------------------------------------- Iteration    1(  19)  ---------------------------------------


    POTLOK:  cpu time   14.7624: real time   14.7985
    SETDIJ:  cpu time    0.1782: real time    0.1786
     EDDAV:  cpu time    5.3429: real time    5.3601
       DOS:  cpu time    0.0001: real time    0.0001
    CHARGE:  cpu time    8.1798: real time    8.2027
    MIXING:  cpu time    0.6369: real time    0.6384
    --------------------------------------------
      LOOP:  cpu time   29.1025: real time   29.1836

 eigenvalue-minimisations  :    32
 total energy-change (2. order) :-0.3942721E-04  (-0.1989189E-07)
 number of electron       8.0000000 magnetization 
 augmentation part        0.1892096 magnetization 

 Broyden mixing:
  rms(total) = 0.40618E-04    rms(broyden)= 0.40618E-04
  rms(prec ) = 0.44304E-04
  weight for this iteration     100.00

 eigenvalues of (default mixing * dielectric matrix)
  average eigenvalue GAMMA=   2.7361
  9.2824  6.2346  4.6735  3.5573  2.7337  2.5418  2.2140  1.2333  0.8692  0.9303
  0.9303  1.0769  1.0387  0.9892

 Free energy of the ion-electron system (eV)
  ---------------------------------------------------
  alpha Z        PSCENC =         0.00565016
  Ewald energy   TEWEN  =       222.82964911
  -Hartree energ DENC   =      -377.25573448
  -exchange      EXHF   =         0.00000000
  -V(xc)+E(xc)   XCENC  =        24.83666012
  PAW double counting   =       471.46425279     -472.26496559
  entropy T*S    EENTRO =        -0.00000000
  eigenvalues    EBANDS =       -90.77948273
  atomic energy  EATOM  =       197.10928552
  Solvation  Ediel_sol  =         0.00000000
  ---------------------------------------------------
  free energy    TOTEN  =       -24.05468509 eV

  energy without entropy =      -24.05468509  energy(sigma->0) =      -24.05468509


--------------------------------------------------------------------------------------------------------




----------------------------------------- Iteration    1(  20)  ---------------------------------------


    POTLOK:  cpu time   14.7190: real time   14.7551
    SETDIJ:  cpu time    0.1785: real time    0.1789
     EDDAV:  cpu time    3.2224: real time    3.2331
       DOS:  cpu time    0.0001: real time    0.0001
    CHARGE:  cpu time    8.1969: real time    8.2196
    MIXING:  cpu time    0.6567: real time    0.6583
    --------------------------------------------
      LOOP:  cpu time   26.9758: real time   27.0499

 eigenvalue-minimisations  :    16
 total energy-change (2. order) :-0.1042145E-04  (-0.4954707E-08)
 number of electron       8.0000000 magnetization 
 augmentation part        0.1892109 magnetization 

 Broyden mixing:
  rms(total) = 0.22480E-04    rms(broyden)= 0.22480E-04
  rms(prec ) = 0.24390E-04
  weight for this iteration     100.00

 eigenvalues of (default mixing * dielectric matrix)
  average eigenvalue GAMMA=   2.8201
  9.4650  6.6869  4.9895  3.9345  3.1269  2.5274  2.4439  2.0953  1.2370  0.8691
  0.9238  0.9238  1.0603  1.0382  0.9793

 Free energy of the ion-electron system (eV)
  ---------------------------------------------------
  alpha Z        PSCENC =         0.00565016
  Ewald energy   TEWEN  =       222.82964911
  -Hartree energ DENC   =      -377.25472211
  -exchange      EXHF   =         0.00000000
  -V(xc)+E(xc)   XCENC  =        24.83657016
  PAW double counting   =       471.44989697     -472.25059892
  entropy T*S    EENTRO =        -0.00000000
  eigenvalues    EBANDS =       -90.78042642
  atomic energy  EATOM  =       197.10928552
  Solvation  Ediel_sol  =         0.00000000
  ---------------------------------------------------
  free energy    TOTEN  =       -24.05469551 eV

  energy without entropy =      -24.05469551  energy(sigma->0) =      -24.05469551


--------------------------------------------------------------------------------------------------------




----------------------------------------- Iteration    1(  21)  ---------------------------------------


    POTLOK:  cpu time   14.7290: real time   14.7651
    SETDIJ:  cpu time    0.1778: real time    0.1783
     EDDAV:  cpu time    3.2307: real time    3.2407
       DOS:  cpu time    0.0002: real time    0.0002
    CHARGE:  cpu time    8.1774: real time    8.2003
    MIXING:  cpu time    0.6806: real time    0.6822
    --------------------------------------------
      LOOP:  cpu time   26.9978: real time   27.0715

 eigenvalue-minimisations  :    16
 total energy-change (2. order) :-0.8887274E-05  (-0.3705168E-08)
 number of electron       8.0000000 magnetization 
 augmentation part        0.1892110 magnetization 

 Broyden mixing:
  rms(total) = 0.14305E-04    rms(broyden)= 0.14305E-04
  rms(prec ) = 0.14972E-04
  weight for this iteration     100.00

 eigenvalues of (default mixing * dielectric matrix)
  average eigenvalue GAMMA=   2.7788
  9.5065  6.9608  5.0436  4.2133  3.1612  2.6939  2.4398  2.2058  1.2566  1.2566
  0.8690  0.9252  0.9252  1.0284  1.0284  0.9470

 Free energy of the ion-electron system (eV)
  ---------------------------------------------------
  alpha Z        PSCENC =         0.00565016
  Ewald energy   TEWEN  =       222.82964911
  -Hartree energ DENC   =      -377.25555538
  -exchange      EXHF   =         0.00000000
  -V(xc)+E(xc)   XCENC  =        24.83662853
  PAW double counting   =       471.46005836     -472.26074750
  entropy T*S    EENTRO =        -0.00000000
  eigenvalues    EBANDS =       -90.77967320
  atomic energy  EATOM  =       197.10928552
  Solvation  Ediel_sol  =         0.00000000
  ---------------------------------------------------
  free energy    TOTEN  =       -24.05470440 eV

  energy without entropy =      -24.05470440  energy(sigma->0) =      -24.05470440


--------------------------------------------------------------------------------------------------------




----------------------------------------- Iteration    1(  22)  ---------------------------------------


    POTLOK:  cpu time   14.7396: real time   14.7757
    SETDIJ:  cpu time    0.1796: real time    0.1800
     EDDAV:  cpu time    5.3424: real time    5.3597
       DOS:  cpu time    0.0004: real time    0.0004
    CHARGE:  cpu time    8.1870: real time    8.2099
    MIXING:  cpu time    0.7038: real time    0.7055
    --------------------------------------------
      LOOP:  cpu time   29.1547: real time   29.2357

 eigenvalue-minimisations  :    32
 total energy-change (2. order) :-0.1932297E-05  (-0.5039560E-09)
 number of electron       8.0000000 magnetization 
 augmentation part        0.1892113 magnetization 

 Broyden mixing:
  rms(total) = 0.10259E-04    rms(broyden)= 0.10259E-04
  rms(prec ) = 0.10664E-04
  weight for this iteration     100.00

 eigenvalues of (default mixing * dielectric matrix)
  average eigenvalue GAMMA=   2.8344
  9.6178  7.2758  5.4194  4.4459  3.5270  2.9010  2.5542  2.3230  2.0429  1.2387
  1.1597  1.0441  0.9999  0.9217  0.9217  0.8693  0.9234

 Free energy of the ion-electron system (eV)
  ---------------------------------------------------
  alpha Z        PSCENC =         0.00565016
  Ewald energy   TEWEN  =       222.82964911
  -Hartree energ DENC   =      -377.25526589
  -exchange      EXHF   =         0.00000000
  -V(xc)+E(xc)   XCENC  =        24.83659994
  PAW double counting   =       471.45903046     -472.25971900
  entropy T*S    EENTRO =        -0.00000000
  eigenvalues    EBANDS =       -90.77993664
  atomic energy  EATOM  =       197.10928552
  Solvation  Ediel_sol  =         0.00000000
  ---------------------------------------------------
  free energy    TOTEN  =       -24.05470633 eV

  energy without entropy =      -24.05470633  energy(sigma->0) =      -24.05470633


--------------------------------------------------------------------------------------------------------




----------------------------------------- Iteration    1(  23)  ---------------------------------------


    POTLOK:  cpu time   14.7289: real time   14.7650
    SETDIJ:  cpu time    0.1779: real time    0.1783
     EDDAV:  cpu time    3.2349: real time    3.2453
       DOS:  cpu time    0.0003: real time    0.0003
    CHARGE:  cpu time    8.1862: real time    8.2088
    MIXING:  cpu time    0.7299: real time    0.7317
    --------------------------------------------
      LOOP:  cpu time   27.0603: real time   27.1344

 eigenvalue-minimisations  :    16
 total energy-change (2. order) :-0.1417253E-05  (-0.5226077E-09)
 number of electron       8.0000000 magnetization 
 augmentation part        0.1892111 magnetization 

 Broyden mixing:
  rms(total) = 0.14366E-05    rms(broyden)= 0.14366E-05
  rms(prec ) = 0.17966E-05
  weight for this iteration     100.00

 eigenvalues of (default mixing * dielectric matrix)
  average eigenvalue GAMMA=   2.8007
  9.6658  7.4501  5.6371  4.5303  3.7200  2.8980  2.6274  2.3660  2.1326  1.3695
  1.2365  0.8692  0.9227  0.9227  0.9981  0.9981  1.0346  1.0346

 Free energy of the ion-electron system (eV)
  ---------------------------------------------------
  alpha Z        PSCENC =         0.00565016
  Ewald energy   TEWEN  =       222.82964911
  -Hartree energ DENC   =      -377.25534808
  -exchange      EXHF   =         0.00000000
  -V(xc)+E(xc)   XCENC  =        24.83659219
  PAW double counting   =       471.45794946     -472.25864174
  entropy T*S    EENTRO =        -0.00000000
  eigenvalues    EBANDS =       -90.77984437
  atomic energy  EATOM  =       197.10928552
  Solvation  Ediel_sol  =         0.00000000
  ---------------------------------------------------
  free energy    TOTEN  =       -24.05470774 eV

  energy without entropy =      -24.05470774  energy(sigma->0) =      -24.05470774


--------------------------------------------------------------------------------------------------------




----------------------------------------- Iteration    1(  24)  ---------------------------------------


    POTLOK:  cpu time   14.7110: real time   14.7471
    SETDIJ:  cpu time    0.1792: real time    0.1796
     EDDAV:  cpu time    3.2328: real time    3.2433
       DOS:  cpu time    0.0005: real time    0.0005
    CHARGE:  cpu time    8.1923: real time    8.2151
    MIXING:  cpu time    0.7495: real time    0.7514
    --------------------------------------------
      LOOP:  cpu time   27.0675: real time   27.1420

 eigenvalue-minimisations  :    16
 total energy-change (2. order) :-0.3988085E-06  (-0.1755467E-09)
 number of electron       8.0000000 magnetization 
 augmentation part        0.1892111 magnetization 

 Broyden mixing:
  rms(total) = 0.21342E-05    rms(broyden)= 0.21342E-05
  rms(prec ) = 0.22507E-05
  weight for this iteration     100.00

 eigenvalues of (default mixing * dielectric matrix)
  average eigenvalue GAMMA=   2.8655
  9.7204  7.7895  5.9675  4.8840  3.8933  3.3984  2.6048  2.6048  2.2796  2.0010
  1.3553  1.2349  0.8691  0.9236  0.9236  1.0413  0.9744  0.9744  1.0043

 Free energy of the ion-electron system (eV)
  ---------------------------------------------------
  alpha Z        PSCENC =         0.00565016
  Ewald energy   TEWEN  =       222.82964911
  -Hartree energ DENC   =      -377.25533031
  -exchange      EXHF   =         0.00000000
  -V(xc)+E(xc)   XCENC  =        24.83658790
  PAW double counting   =       471.45718770     -472.25788070
  entropy T*S    EENTRO =        -0.00000000
  eigenvalues    EBANDS =       -90.77985754
  atomic energy  EATOM  =       197.10928552
  Solvation  Ediel_sol  =         0.00000000
  ---------------------------------------------------
  free energy    TOTEN  =       -24.05470814 eV

  energy without entropy =      -24.05470814  energy(sigma->0) =      -24.05470814


--------------------------------------------------------------------------------------------------------




----------------------------------------- Iteration    1(  25)  ---------------------------------------


    POTLOK:  cpu time   14.6563: real time   14.6922
    SETDIJ:  cpu time    0.1817: real time    0.1822
     EDDAV:  cpu time    3.2322: real time    3.2426
       DOS:  cpu time    0.0003: real time    0.0003
    CHARGE:  cpu time    8.1843: real time    8.2070
    MIXING:  cpu time    0.7800: real time    0.7819
    --------------------------------------------
      LOOP:  cpu time   27.0368: real time   27.1106

 eigenvalue-minimisations  :    16
 total energy-change (2. order) :-0.2685904E-06  (-0.2501821E-10)
 number of electron       8.0000000 magnetization 
 augmentation part        0.1892111 magnetization 

 Broyden mixing:
  rms(total) = 0.12906E-05    rms(broyden)= 0.12906E-05
  rms(prec ) = 0.13451E-05
  weight for this iteration     100.00

 eigenvalues of (default mixing * dielectric matrix)
  average eigenvalue GAMMA=   2.8560
  9.7442  7.9342  6.2399  4.8331  4.3247  3.1375  3.1375  2.4471  2.3526  2.1184
  1.4459  1.4459  1.2364  0.8692  0.9230  0.9230  1.0407  1.0257  0.9901  0.9513

 Free energy of the ion-electron system (eV)
  ---------------------------------------------------
  alpha Z        PSCENC =         0.00565016
  Ewald energy   TEWEN  =       222.82964911
  -Hartree energ DENC   =      -377.25532667
  -exchange      EXHF   =         0.00000000
  -V(xc)+E(xc)   XCENC  =        24.83658767
  PAW double counting   =       471.45752060     -472.25821387
  entropy T*S    EENTRO =        -0.00000000
  eigenvalues    EBANDS =       -90.77986095
  atomic energy  EATOM  =       197.10928552
  Solvation  Ediel_sol  =         0.00000000
  ---------------------------------------------------
  free energy    TOTEN  =       -24.05470841 eV

  energy without entropy =      -24.05470841  energy(sigma->0) =      -24.05470841


--------------------------------------------------------------------------------------------------------




----------------------------------------- Iteration    1(  26)  ---------------------------------------


    POTLOK:  cpu time   14.6272: real time   14.6631
    SETDIJ:  cpu time    0.1843: real time    0.1847
     EDDAV:  cpu time    3.2309: real time    3.2412
       DOS:  cpu time    0.0004: real time    0.0004
    --------------------------------------------
      LOOP:  cpu time   18.0448: real time   18.0939

 eigenvalue-minimisations  :    16
 total energy-change (2. order) :-0.6328901E-07  ( 0.2046008E-10)
 number of electron       8.0000000 magnetization 
 augmentation part        0.1892111 magnetization 

 Free energy of the ion-electron system (eV)
  ---------------------------------------------------
  alpha Z        PSCENC =         0.00565016
  Ewald energy   TEWEN  =       222.82964911
  -Hartree energ DENC   =      -377.25537583
  -exchange      EXHF   =         0.00000000
  -V(xc)+E(xc)   XCENC  =        24.83659142
  PAW double counting   =       471.45755477     -472.25824760
  entropy T*S    EENTRO =        -0.00000000
  eigenvalues    EBANDS =       -90.77981603
  atomic energy  EATOM  =       197.10928552
  Solvation  Ediel_sol  =         0.00000000
  ---------------------------------------------------
  free energy    TOTEN  =       -24.05470848 eV

  energy without entropy =      -24.05470848  energy(sigma->0) =      -24.05470848


--------------------------------------------------------------------------------------------------------




 average (electrostatic) potential at core
  the test charge radii are     0.6991  0.5201
  (the norm of the test charge is              1.0000)
       1 -58.0198       2 -41.6777       3 -41.6777       4 -41.6778       5 -41.6786
 
 
 
 E-fermi :  -9.3883     XC(G=0):  -0.0248     alpha+bet : -0.0049


 k-point     1 :       0.0000    0.0000    0.0000
  band No.  band energies     occupation 
      1     -17.0619      2.00000
      2      -9.4489      2.00000
      3      -9.4403      2.00000
      4      -9.4388      2.00000
      5      -0.4062      0.00000
      6       0.0038      0.00000
      7       0.1114      0.00000
      8       0.1114      0.00000


--------------------------------------------------------------------------------------------------------


 soft charge-density along one line, spin component           1
         0         1         2         3         4         5         6         7         8         9
 total charge-density along one line
 
 pseudopotential strength for first ion, spin component:           1
 10.208  13.575   0.000  -0.000  -0.000  -0.000   0.000   0.000
 13.575  18.051   0.000  -0.000  -0.000  -0.000   0.000   0.000
  0.000   0.000  -4.335   0.000   0.000   8.482  -0.000  -0.000
 -0.000  -0.000   0.000  -4.335   0.000  -0.000   8.482  -0.000
 -0.000  -0.000   0.000   0.000  -4.335  -0.000  -0.000   8.482
 -0.000  -0.000   8.482  -0.000  -0.000 -18.730   0.000   0.000
  0.000   0.000  -0.000   8.482  -0.000   0.000 -18.730   0.000
  0.000   0.000  -0.000  -0.000   8.482   0.000   0.000 -18.730
 total augmentation occupancy for first ion, spin component:           1
  7.680  -3.290   0.000  -0.002   0.000   0.000  -0.000   0.000
 -3.290   1.409  -0.000   0.002   0.000  -0.000   0.000   0.000
  0.000  -0.000   1.645  -0.000   0.000   0.139  -0.000   0.000
 -0.002   0.002  -0.000   1.645   0.000  -0.000   0.139   0.000
  0.000   0.000   0.000   0.000   1.645   0.000   0.000   0.139
  0.000  -0.000   0.139  -0.000   0.000   0.012  -0.000   0.000
 -0.000   0.000  -0.000   0.139   0.000  -0.000   0.012   0.000
  0.000   0.000   0.000   0.000   0.139   0.000   0.000   0.012


------------------------ aborting loop because EDIFF is reached ----------------------------------------


    CHARGE:  cpu time    8.2295: real time    8.2522
    FORLOC:  cpu time    1.0531: real time    1.0557
    FORNL :  cpu time    0.1436: real time    0.1440
    STRESS:  cpu time    2.3891: real time    2.3950
    FORCOR:  cpu time   14.4509: real time   14.4863
    FORHAR:  cpu time    4.3842: real time    4.3949
    MIXING:  cpu time    0.8080: real time    0.8100
    OFIELD:  cpu time    0.0001: real time    0.0001

  FORCE on cell =-STRESS in cart. coord.  units (eV):
  Direction    XX          YY          ZZ          XY          YZ          ZX
  --------------------------------------------------------------------------------------
  Alpha Z     0.00565     0.00565     0.00565
  Ewald      74.18784    74.22283    74.41918    -0.00000    -0.00245    -0.00000
  Hartree   125.72707   125.73691   125.79136    -0.00000    -0.00070    -0.00000
  E(xc)     -27.31745   -27.31726   -27.31621     0.00000    -0.00001     0.00000
  Local    -258.24284  -258.28168  -258.49906     0.00000     0.00266     0.00000
  n-local   -15.97975   -15.97938   -15.97613    -0.00000     0.00011     0.00000
  augment     0.12581     0.12578     0.12557     0.00000     0.00000    -0.00000
  Kinetic   101.81719   101.80708   101.74713     0.00000     0.00029    -0.00000
  Fock        0.00000     0.00000     0.00000     0.00000     0.00000     0.00000
  -------------------------------------------------------------------------------------
  Total       0.32353     0.31993     0.29750     0.00000    -0.00009     0.00000
  in kB       0.01209     0.01196     0.01112     0.00000    -0.00000     0.00000
  external pressure =        0.01 kB  Pullay stress =        0.00 kB


 VOLUME and BASIS-vectors are now :
 -----------------------------------------------------------------------------
  energy-cutoff  :     1600.00
  volume of cell :    42875.00
      direct lattice vectors                 reciprocal lattice vectors
    35.000000000  0.000000000  0.000000000     0.028571429  0.000000000  0.000000000
     0.000000000 35.000000000  0.000000000     0.000000000  0.028571429  0.000000000
     0.000000000  0.000000000 35.000000000     0.000000000  0.000000000  0.028571429

  length of vectors
    35.000000000 35.000000000 35.000000000     0.028571429  0.028571429  0.028571429


 FORCES acting on ions
    electron-ion (+dipol)            ewald-force                    non-local-force                 convergence-correction
 -----------------------------------------------------------------------------------------------
   0.983E-15 0.207E-01 -.195E+00   0.142E-13 -.223E-01 0.210E+00   0.000E+00 0.264E-02 -.254E-01   -.236E-14 0.190E-05 0.151E-05
   0.440E+02 -.254E+02 0.180E+02   -.487E+02 0.281E+02 -.200E+02   0.458E+01 -.265E+01 0.188E+01   0.182E-05 -.868E-06 0.897E-06
   -.440E+02 -.254E+02 0.180E+02   0.487E+02 0.281E+02 -.200E+02   -.458E+01 -.265E+01 0.188E+01   -.182E-05 -.868E-06 0.897E-06
   0.196E-15 0.508E+02 0.180E+02   0.133E-14 -.563E+02 -.200E+02   0.000E+00 0.529E+01 0.188E+01   -.662E-15 0.192E-05 0.760E-06
   0.558E-16 -.100E-01 -.539E+02   -.133E-14 0.110E-01 0.597E+02   0.000E+00 -.126E-02 -.562E+01   0.920E-15 0.189E-06 -.220E-05
 -----------------------------------------------------------------------------------------------
   0.102E-11 0.475E-03 -.394E-02   0.711E-14 0.444E-15 0.000E+00   0.000E+00 -.476E-03 0.396E-02   -.236E-14 0.227E-05 0.187E-05
 
 
 POSITION                                       TOTAL-FORCE (eV/Angst)
 -----------------------------------------------------------------------------------
      0.00000     34.99986      1.85916         0.000000      0.001016     -0.010469
     34.11145      0.51306      1.49468        -0.182230      0.103775     -0.065729
      0.88855      0.51306      1.49468         0.182230      0.103775     -0.065729
      0.00000     33.97366      1.49487         0.000000     -0.208273     -0.065606
      0.00000      0.00009      2.94828         0.000000     -0.000292      0.207533
 -----------------------------------------------------------------------------------
    total drift:                                0.000000      0.000002      0.000018


--------------------------------------------------------------------------------------------------------



  FREE ENERGIE OF THE ION-ELECTRON SYSTEM (eV)
  ---------------------------------------------------
  free  energy   TOTEN  =       -24.05470848 eV

  energy  without entropy=      -24.05470848  energy(sigma->0) =      -24.05470848
 


--------------------------------------------------------------------------------------------------------


    POTLOK:  cpu time   15.2232: real time   15.2605


--------------------------------------------------------------------------------------------------------


 writing wavefunctions
     LOOP+:  cpu time 1254.8692: real time 1258.2383
    4ORBIT:  cpu time    0.0000: real time    0.0000

 total amount of memory used by VASP on root node  3442701. kBytes
========================================================================

   base      :      30000. kBytes
   nonl-proj :      81000. kBytes
   fftplans  :    1215227. kBytes
   grid      :    2104012. kBytes
   one-center:          1. kBytes
   wavefun   :      12461. kBytes
 
  
  
 General timing and accounting informations for this job:
 ========================================================
  
                  Total CPU time used (sec):     2023.265
                            User time (sec):     1792.454
                          System time (sec):      230.811
                         Elapsed time (sec):     2028.981
  
                   Maximum memory used (kb):     5942536.
                   Average memory used (kb):           0.
  
                          Minor page faults:       172256
                          Major page faults:            4
                 Voluntary context switches:        18775
 
 PROFILE, used timers:      13
 =============================
 
 index                 routine                    time                            calls level
----------------------------------------------------------------------------------------------
    1    total_time                         2028.982656                                1   1
    2      w1_copy                               0.943634                            608   2
    3      fftwav_mpi                           45.483050                            226   2
    4      fftext_mpi                            0.265946                              2   2
    5      overl                                 0.000252                            353   2
    6      orth1                                 0.903113                            278   2
    7      lincom                                0.001218                              1   2
    8      eccp                                  1.776816                             52   2
    9      hamiltmu                             42.573817                            101   2
   10        vhamil                                9.440260                          202   3
   11        overl1                                0.000141                          202   3
   12        kinhamil                             26.866521                          202   3
   13          fftext_mpi                           26.604645                        202   4
 
 Flat profile
 ============
 
             routine name                   CPU           calls
 ---------------------------------------------------------------
 total_time                           1937.034809           1
 fftwav_mpi                             45.483050         226
 fftext_mpi                             26.870591         204
 vhamil                                  9.440260         202
 hamiltmu                                6.266895         101
 eccp                                    1.776816          52
 w1_copy                                 0.943634         608
 orth1                                   0.903113         278
 kinhamil                                0.261876         202
 lincom                                  0.001218           1
 overl                                   0.000252         353
 overl1                                  0.000141         202
 ---------------------------------------------------------------
  summed up times    2028.98265600204     
 
Profiling took   0.004550  0.003626  0.003250  0.003238 seconds
Profiling took   0.001212 seconds
