
 Primary working directories    : /scratch/sirous/43228/molpro.XdkdEb6WWV
 Secondary working directories  : /scratch/sirous/43228/molpro.XdkdEb6WWV
 Wavefunction directory         : /scratch/sirous/43228/
 Main file repository           : /scratch/sirous/43228/molpro.XdkdEb6WWV/

 id        : karlovklimes

 Nodes                      nprocs
 nc-19.cc.karlov.mff.cuni.cz    4

 Using customized tuning parameters: mindgm=1; mindgv=20; mindgc=4; mindgr=1; noblas=0; minvec=7
 default implementation of scratch files=sf  


 Variables initialized (934), CPU time= 0.00 sec
 ***,CH3C6H4CN+CF3CN+BF3
 memory,500,m
 gdirect
 gthresh,energy=1.d-8,twoint=1.d-19,oneint=1.d-19,zero=1.d-15,orbital=1.d-8,grid=1.d-8
 symmetry,nosym
 geomtyp=xyz
                                                                                 ! Geometry
 geometry={
 O1        -0.525329794    -0.050971084     -0.314516861
 H1        -0.942006633    0.747901631     0.011252816
 H2        0.403696525    0.059785981     -0.073568368
 O2        4.903983173716144    0.026179444227088455     0.26855590090109666
 H3        5.271965997716144    -0.5458979587729115     0.9460842279010967
 C1        5.368988244716144    -0.4454504717729115     -0.9936032090989034
 H4        4.938171149716144    0.20564321922708845     -1.7467172410989034
 H5        6.454951931716144    -0.39465761077291156     -1.0679151370989035
 H6        5.0406456267161435    -1.4653199687729115     -1.1926838430989033
 }
 
 
 
 basis=aug-cc-pv5z
 
 
 
                                                                                 ! Dimer Calculation
 {rks,pbe,accu=1.d-8;orbital,2101.2}
 eab_PBE=energy
 
 
                                                                                 !monomer A
 dummy,4,5,6,7,8,9;                                                              ! NOW MONOMER B IS DUMMY
 {rks,pbe,accu=1.d-8;orbital,2201.2}
 ea_PBE=energy
                                                                                 !monomer B
 dummy,1,2,3;                                                                    !NOW MONOMER A IS DUMMY
 {rks,pbe,accu=1.d-8;orbital,2301.2}
 eb_PBE=energy
 
 E_AB_int=eab_PBE-ea_PBE-eb_PBE
 
 
 text,results in hartree
 show,E_AB_int
 
 Commands  initialized (763), CPU time= 0.01 sec, 617 directives.
 Default parameters read. Elapsed time= 0.21 sec

 Checking input...
 Passed
1


                                         ***  PROGRAM SYSTEM MOLPRO  ***
                                       Copyright, TTI GmbH Stuttgart, 2015
                                    Version 2019.2 linked Jun  8 2019 11:26:33


 **********************************************************************************************************************************
 LABEL *   CH3C6H4CN+CF3CN+BF3                                                           
  64 bit mpp version                                                                     DATE: 06-Oct-19          TIME: 18:43:54  
 **********************************************************************************************************************************

 SHA1:             8135a10abc80eafa5b3ae28ffc55be4890dc4c84
 **********************************************************************************************************************************

 THRESHOLDS:

 ZERO    =  1.00D-15  ONEINT  =  1.00D-19  TWOINT  =  1.00D-19  PREFAC  =  1.00D-14  XXXXXX  =  1.00D-09  EORDER  =  1.00D-04
 ENERGY  =  1.00D-08  ETEST   =  0.00D+00  EDENS   =  0.00D+00  THRDEDEF=  1.00D-06  GRADIENT=  1.00D-02  STEP    =  1.00D-03
 ORBITAL =  1.00D-08  CIVEC   =  1.00D-05  COEFF   =  1.00D-04  PRINTCI =  5.00D-02  PUNCHCI =  9.90D+01  OPTGRAD =  3.00D-04
 OPTENERG=  1.00D-06  OPTSTEP =  3.00D-04  THRGRAD =  1.00D-10  COMPRESS=  1.00D-11  VARMIN  =  1.00D-07  VARMAX  =  1.00D-03
 THRDOUB =  0.00D+00  THRDIV  =  1.00D-05  THRRED  =  1.00D-07  THRPSP  =  1.00D+00  THRDC   =  1.00D-10  THRCS   =  1.00D-10
 THRNRM  =  1.00D-08  THREQ   =  0.00D+00  THRDE   =  1.00D+00  THRREF  =  1.00D-05  SPARFAC =  1.00D+00  THRDLP  =  1.00D-07
 THRDIA  =  1.00D-10  THRDLS  =  1.00D-07  THRGPS  =  0.00D+00  THRKEX  =  0.00D+00  THRDIS  =  2.00D-01  THRVAR  =  1.00D-10
 THRLOC  =  1.00D-06  THRGAP  =  1.00D-06  THRLOCT = -1.00D+00  THRGAPT = -1.00D+00  THRORB  =  1.00D-06  THRMLTP =  0.00D+00
 THRCPQCI=  1.00D-10  KEXTA   =  0.00D+00  THRCOARS=  0.00D+00  SYMTOL  =  1.00D-06  GRADTOL =  1.00D-06  THROVL  =  1.00D-08
 THRORTH =  1.00D-08  GRID    =  1.00D-08  GRIDMAX =  1.00D-03  DTMAX   =  0.00D+00  THROCCDE=  1.00D-01  THROCCDE=  1.00D-01
 THRPRINT=  2.50D-01


 Variable memory set to  500000000 words,  buffer space 

 SETTING GEOMTYP        =    XYZ
 ZSYMEL=NOSYM

 SETTING BASIS          =    AUG-CC-PV5Z


 Recomputing integrals since basis changed


 Using spherical harmonics

 Library entry O      S aug-cc-pV5Z          selected for orbital group  1
 Library entry O      P aug-cc-pV5Z          selected for orbital group  1
 Library entry O      D aug-cc-pV5Z          selected for orbital group  1
 Library entry O      F aug-cc-pV5Z          selected for orbital group  1
 Library entry O      G aug-cc-pV5Z          selected for orbital group  1
 Library entry O      H aug-cc-pV5Z          selected for orbital group  1
 Library entry H      S aug-cc-pV5Z          selected for orbital group  2
 Library entry H      P aug-cc-pV5Z          selected for orbital group  2
 Library entry H      D aug-cc-pV5Z          selected for orbital group  2
 Library entry H      F aug-cc-pV5Z          selected for orbital group  2
 Library entry H      G aug-cc-pV5Z          selected for orbital group  2
 Library entry C      S aug-cc-pV5Z          selected for orbital group  5
 Library entry C      P aug-cc-pV5Z          selected for orbital group  5
 Library entry C      D aug-cc-pV5Z          selected for orbital group  5
 Library entry C      F aug-cc-pV5Z          selected for orbital group  5
 Library entry C      G aug-cc-pV5Z          selected for orbital group  5
 Library entry C      H aug-cc-pV5Z          selected for orbital group  5


 PROGRAM * SEWARD (Integral evaluation for generally contracted gaussian basis sets)     Author: Roland Lindh, 1990

 Geometry written to block  1 of record 700


 Point group  C1  



 ATOMIC COORDINATES

 NR  ATOM    CHARGE       X              Y              Z

   1  O1      8.00   -0.992729436   -0.096321389   -0.594350729
   2  H1      1.00   -1.780134544    1.413329251    0.021264740
   3  H2      1.00    0.762875870    0.112979130   -0.139024067
   4  O2      8.00    9.267185118    0.049471980    0.507497102
   5  H3      1.00    9.962571874   -1.031597634    1.787840082
   6  C1      6.00   10.145917349   -0.841779394   -1.877637942
   7  H4      1.00    9.331791029    0.388609364   -3.300817203
   8  H5      1.00   12.198091298   -0.745794797   -2.018067133
   9  H6      1.00    9.525439725   -2.769053426   -2.253845817

 Bond lengths in Bohr (Angstrom)

 1-2  1.810534248  1-3  1.825726996  4-5  1.814263596  4-6  2.693579128  6-7  2.049901795
     ( 0.958093464)     ( 0.966133120)     ( 0.960066950)     ( 1.425380690)     ( 1.084761314)

 6-8  2.059211335  6-9  2.059346994
     ( 1.089687711)     ( 1.089759498)

 Bond angles

  2-1-3  103.75741034   4-6-7  106.65459099   4-6-8  111.72059382   4-6-9  111.90879545

  5-4-6  107.61952492   7-6-8  108.69153234   7-6-9  108.37480423   8-6-9  109.35579191

 NUCLEAR CHARGE:                   28
 NUMBER OF PRIMITIVE AOS:        1245
 NUMBER OF SYMMETRY AOS:          930
 NUMBER OF CONTRACTIONS:          861   (  861A   )
 NUMBER OF CORE ORBITALS:           3   (    3A   )
 NUMBER OF VALENCE ORBITALS:       18   (   18A   )


 NUCLEAR REPULSION ENERGY   66.20520418


 Eigenvalues of metric

         1 0.194E-05 0.208E-05 0.259E-05 0.381E-05 0.667E-05 0.932E-05 0.101E-04 0.120E-04


 OPERATOR DM      FOR CENTER  0  COORDINATES:    0.000000    0.000000    0.000000


 **********************************************************************************************************************************
 DATASETS  * FILE   NREC   LENGTH (MB)   RECORD NAMES
              1      18       57.10       500      610      700      900      950      970     1000      129      960     1100   
                                          VAR    BASINP    GEOM    SYMINP    ZMAT    AOBASIS   BASIS     P2S    ABASIS      S 
                                         1400     1410     1200     1210     1080     1600     1650     1700   
                                           T        V       H0       H01     AOSYM     SMH    MOLCAS    OPER   

 PROGRAMS   *        TOTAL       INT
 CPU TIMES  *         1.62      1.43
 REAL TIME  *         2.94 SEC
 DISK USED  *        57.81 MB (local),      231.24 MB (total)
 GA USED    *         0.00 MB       (max)       0.00 MB       (current)
 **********************************************************************************************************************************

 Density functional group PBE=PBEX+PBEC
 Functional: PBEX(Automatically generated (new) PBEX)                          Gradient terms: 1
 Functional: PBEC(Automatically generated (new) PBEC)                          Gradient terms: 1
 Use libxcgrid:  F
 Use grid at  1800.2

 Functional: PBEX                      Factor:  1.0000
 Functional: PBEC                      Factor:  1.0000

 Generated new metagrid on record  1800.2 with target accuracy 1.0D-08 and 85440 points in CPU time    0.2
 Computed new grid on record 1800.1 in CPU time    0.3
  695676 words reserved for DFT integration

 PROGRAM * RKS-SCF (Restricted closed shell Kohn-Sham)     Authors: W. Meyer, H.-J. Werner, P.J. Knowles, 1993

 NUMBER OF ELECTRONS:      14+   14-    SPACE SYMMETRY=1    SPIN SYMMETRY: Singlet 
 CONVERGENCE THRESHOLDS:    1.00E-04 (Density)    1.00E-08 (Energy)
 INTEGRAL THRESHOLDS:       1.00E-12 (Initial)    1.00E-12 (Final)
 MAX. NUMBER OF ITERATIONS:       60
 INTERPOLATION TYPE:            DIIS
 INTERPOLATION STEPS:              2 (START)      1 (STEP)
 LEVEL SHIFTS:                  0.00 (CLOSED)  0.00 (OPEN) 



 Use fine grid record 1800.2 for energy threshold  1.0D-08
 Orbital guess generated from atomic densities. Full valence occupancy:   21

 Molecular orbital dump at record        2101.2

 Initial occupancy:  14

 Direct Fock-matrix evaluation.        Authors: Roland Lindh & Martin Schuetz (1993/96)

 Integral Threshold:                  0.1D-11
 Threshold for writing integrals:     0.1D-06
 Prescreening on density matrix:        ON 
 Calculation will be performed fully direct        

 ITERATION   DDIFF            GRAD            ENERGY        2-EL.EN.            DIPOLE MOMENTS         DIIS   CPU(IT)  CPU(TOT)
    1      0.000D+00      0.000D+00      -191.84298138    331.376601    1.07863    0.05308    0.43997    0   1111.9   1131.8     start
    2      0.000D+00      0.444D-02      -191.20940083    294.859539   -0.22300   -0.14524   -0.27740    1   1102.3   2234.1     diag
    3      0.515D-02      0.933D-02      -192.02250702    319.923633    0.76951    0.06101    0.21376    2   1093.9   3328.1     diag
    4      0.358D-02      0.908D-03      -192.02924551    319.744787    0.70651    0.04185    0.27307    3   1017.4   4345.4     diag
    5      0.580D-03      0.406D-03      -192.03089112    319.378599    0.71142    0.03708    0.24896    4    998.6   5344.1     diag
    6      0.228D-03      0.822D-04      -192.03092683    319.384807    0.70821    0.04917    0.25344    5    952.1   6296.2     diag
    7      0.417D-04      0.456D-04      -192.03094300    319.423119    0.71090    0.04185    0.24875    6    900.5   7196.7     diag
    8      0.178D-04      0.947D-05      -192.03094378    319.433095    0.71136    0.04289    0.24982    7    864.3   8061.0     diag
    9      0.357D-05      0.477D-06      -192.03094379    319.433010    0.71125    0.04298    0.24978    8    747.3   8808.3     diag
   10      0.259D-06      0.104D-06      -192.03094379    319.432930    0.71130    0.04289    0.24978    0    649.2   9457.5     orth

 Final occupancy:  14

 !RKS STATE  1.1 Energy              -192.030943785690
 Nuclear energy                        66.20520418
 One-electron energy                 -393.35208068
 Two-electron energy                  159.71646521
 Density functional                   -24.60053250     PBEX=-23.69568701 PBEC= -0.90484549
 Virial quotient                       -1.00357123
 !RKS STATE  1.1 Dipole moment          0.71130447     0.04289206     0.24978150
 Dipole moment /Debye                   1.80783721     0.10901361     0.63483965

 Orbital energies:

         1.1          2.1          3.1          4.1          5.1          6.1          7.1          8.1          9.1         10.1
    -18.755297   -18.750402    -9.924153    -0.938881    -0.925914    -0.623992    -0.477578    -0.463426    -0.396050    -0.384659

        11.1         12.1         13.1         14.1         15.1         16.1
     -0.339656    -0.299577    -0.261687    -0.235804    -0.035530    -0.021766


 HOMO     14.1    -0.235804 =      -6.4166eV
 LUMO     15.1    -0.035530 =      -0.9668eV
 LUMO-HOMO         0.200275 =       5.4498eV


 **********************************************************************************************************************************
 DATASETS  * FILE   NREC   LENGTH (MB)   RECORD NAMES
              1      19       57.10       500      610      700      900      950      970     1000      129      960     1100   
                                          VAR    BASINP    GEOM    SYMINP    ZMAT    AOBASIS   BASIS     P2S    ABASIS      S 
                                         1400     1410     1200     1210     1080     1600     1650     1700     1800   
                                           T        V       H0       H01     AOSYM     SMH    MOLCAS    OPER     GRID   

              2       5       17.90       700     1000      520     1800     2101   
                                         GEOM     BASIS   MCVARS    GRID      RKS  

 PROGRAMS   *        TOTAL   RKS-SCF       INT
 CPU TIMES  *      9460.86   9459.24      1.43
 REAL TIME  *      9510.61 SEC
 DISK USED  *       125.66 MB (local),      502.65 MB (total)
 SF USED    *         8.91 MB
 GA USED    *         2.80 MB       (max)       2.80 MB       (current)
 **********************************************************************************************************************************
 SETTING EAB_PBE        =      -192.03094379  AU                              

 Dummy atoms: O2  H3  C1  H4  H5  H6


 Recomputing one-electron integrals since nuclear charges changed


 PROGRAM * SEWARD (Integral evaluation for generally contracted gaussian basis sets)     Author: Roland Lindh, 1990

 Geometry written to block  1 of record 700


 Point group  C1  



 ATOMIC COORDINATES

 NR  ATOM    CHARGE       X              Y              Z

   1  O1      8.00   -0.992729436   -0.096321389   -0.594350729
   2  H1      1.00   -1.780134544    1.413329251    0.021264740
   3  H2      1.00    0.762875870    0.112979130   -0.139024067
   4  O2      0.00    9.267185118    0.049471980    0.507497102
   5  H3      0.00    9.962571874   -1.031597634    1.787840082
   6  C1      0.00   10.145917349   -0.841779394   -1.877637942
   7  H4      0.00    9.331791029    0.388609364   -3.300817203
   8  H5      0.00   12.198091298   -0.745794797   -2.018067133
   9  H6      0.00    9.525439725   -2.769053426   -2.253845817

 Bond lengths in Bohr (Angstrom)

 1-2  1.810534248  1-3  1.825726996  4-5  1.814263596  4-6  2.693579128  6-7  2.049901795
     ( 0.958093464)     ( 0.966133120)     ( 0.960066950)     ( 1.425380690)     ( 1.084761314)

 6-8  2.059211335  6-9  2.059346994
     ( 1.089687711)     ( 1.089759498)

 Bond angles

  2-1-3  103.75741034   4-6-7  106.65459099   4-6-8  111.72059382   4-6-9  111.90879545

  5-4-6  107.61952492   7-6-8  108.69153234   7-6-9  108.37480423   8-6-9  109.35579191

 NUCLEAR CHARGE:                   10
 NUMBER OF PRIMITIVE AOS:        1245
 NUMBER OF SYMMETRY AOS:          930
 NUMBER OF CONTRACTIONS:          861   (  861A   )
 NUMBER OF CORE ORBITALS:           1   (    1A   )
 NUMBER OF VALENCE ORBITALS:        6   (    6A   )

 MOLECULE CHANGED: INITIALIZING OCCUPATION AND DUMP RECORDS


 NUCLEAR REPULSION ENERGY    9.14996834


 Eigenvalues of metric

         1 0.194E-05 0.208E-05 0.259E-05 0.381E-05 0.667E-05 0.932E-05 0.101E-04 0.120E-04


 OPERATOR DM      FOR CENTER  0  COORDINATES:    0.000000    0.000000    0.000000


 **********************************************************************************************************************************
 DATASETS  * FILE   NREC   LENGTH (MB)   RECORD NAMES
              1      19       57.10       500      610      700      900      950      970     1000      129      960     1100   
                                          VAR    BASINP    GEOM    SYMINP    ZMAT    AOBASIS   BASIS     P2S    ABASIS      S 
                                         1400     1410     1200     1210     1080     1600     1650     1700     1800   
                                           T        V       H0       H01     AOSYM     SMH    MOLCAS    OPER     GRID   

              2       5       17.90       700     1000      520     1800     2101   
                                         GEOM     BASIS   MCVARS    GRID      RKS  

 PROGRAMS   *        TOTAL       INT   RKS-SCF       INT
 CPU TIMES  *      9461.97      1.11   9459.24      1.43
 REAL TIME  *      9511.85 SEC
 DISK USED  *       125.66 MB (local),      502.65 MB (total)
 SF USED    *         8.91 MB
 GA USED    *         2.80 MB       (max)       2.80 MB       (current)
 **********************************************************************************************************************************

 Density functional group PBE=PBEX+PBEC
 Functional: PBEX(Automatically generated (new) PBEX)                          Gradient terms: 1
 Functional: PBEC(Automatically generated (new) PBEC)                          Gradient terms: 1
 Use libxcgrid:  F
 Use grid at  1800.2

 Functional: PBEX                      Factor:  1.0000
 Functional: PBEC                      Factor:  1.0000

 Generated new metagrid on record  1800.2 with target accuracy 1.0D-08 and 85440 points in CPU time    0.3
 Computed new grid on record 1800.1 in CPU time    0.3
  695676 words reserved for DFT integration

 PROGRAM * RKS-SCF (Restricted closed shell Kohn-Sham)     Authors: W. Meyer, H.-J. Werner, P.J. Knowles, 1993

 NUMBER OF ELECTRONS:       5+    5-    SPACE SYMMETRY=1    SPIN SYMMETRY: Singlet 
 CONVERGENCE THRESHOLDS:    1.00E-04 (Density)    1.00E-08 (Energy)
 INTEGRAL THRESHOLDS:       1.00E-12 (Initial)    1.00E-12 (Final)
 MAX. NUMBER OF ITERATIONS:       60
 INTERPOLATION TYPE:            DIIS
 INTERPOLATION STEPS:              2 (START)      1 (STEP)
 LEVEL SHIFTS:                  0.00 (CLOSED)  0.00 (OPEN) 



 Use fine grid record 1800.2 for energy threshold  1.0D-08
 Orbital guess generated from atomic densities. Full valence occupancy:    7

 Molecular orbital dump at record        2201.2

 Initial occupancy:   5

 Direct Fock-matrix evaluation.        Authors: Roland Lindh & Martin Schuetz (1993/96)

 Integral Threshold:                  0.1D-11
 Threshold for writing integrals:     0.1D-06
 Prescreening on density matrix:        ON 
 Calculation will be performed fully direct        

 ITERATION   DDIFF            GRAD            ENERGY        2-EL.EN.            DIPOLE MOMENTS         DIIS   CPU(IT)  CPU(TOT)
    1      0.000D+00      0.000D+00       -76.30168148     98.211336    0.47932    0.84477    0.52701    0    970.7    985.9     start
    2      0.000D+00      0.530D-02       -75.90955413     81.726586   -0.21571   -0.34559   -0.21941    1   1047.4   2033.3     diag
    3      0.334D-02      0.120D-01       -76.38771101     93.593007    0.31858    0.56759    0.35341    2   1049.3   3082.6     diag
    4      0.240D-02      0.317D-03       -76.38813457     93.188036    0.30487    0.54468    0.33896    3    925.0   4007.6     diag
    5      0.129D-03      0.699D-04       -76.38814821     93.239245    0.30433    0.54352    0.33826    4    803.3   4810.9     diag
    6      0.151D-04      0.156D-04       -76.38814899     93.249769    0.30536    0.54532    0.33938    5    635.8   5446.7     diag
    7      0.304D-05      0.733D-06       -76.38814899     93.249526    0.30529    0.54521    0.33932    6    440.4   5887.1     diag
    8      0.172D-06      0.502D-07       -76.38814899     93.249616    0.30531    0.54523    0.33933    0    251.3   6138.4     orth

 Final occupancy:   5

 !RKS STATE  1.1 Energy               -76.388148994472
 Nuclear energy                         9.14996834
 One-electron energy                 -122.92523057
 Two-electron energy                   46.62480797
 Density functional                    -9.23769473     PBEX=-8.91338656 PBEC=-0.32430818
 Virial quotient                       -1.00340390
 !RKS STATE  1.1 Dipole moment          0.30530548     0.54522671     0.33932615
 Dipole moment /Debye                   0.77595829     1.38573730     0.86242456

 Orbital energies:

         1.1          2.1          3.1          4.1          5.1          6.1          7.1
    -18.755242    -0.930765    -0.482493    -0.344313    -0.266304    -0.034905     0.011758


 HOMO      5.1    -0.266304 =      -7.2465eV
 LUMO      6.1    -0.034905 =      -0.9498eV
 LUMO-HOMO         0.231398 =       6.2967eV


 **********************************************************************************************************************************
 DATASETS  * FILE   NREC   LENGTH (MB)   RECORD NAMES
              1      19       57.10       500      610      700      900      950      970     1000      129      960     1100   
                                          VAR    BASINP    GEOM    SYMINP    ZMAT    AOBASIS   BASIS     P2S    ABASIS      S 
                                         1400     1410     1200     1210     1080     1600     1650     1700     1800   
                                           T        V       H0       H01     AOSYM     SMH    MOLCAS    OPER     GRID   

              2       6       50.09       700     1000      520     1800     2101     2201   
                                         GEOM     BASIS   MCVARS    GRID      RKS      RKS  

 PROGRAMS   *        TOTAL   RKS-SCF       INT   RKS-SCF       INT
 CPU TIMES  *     15602.18   6140.21      1.11   9459.24      1.43
 REAL TIME  *     15673.68 SEC
 DISK USED  *       151.92 MB (local),      607.66 MB (total)
 SF USED    *         8.91 MB
 GA USED    *         2.80 MB       (max)       2.80 MB       (current)
 **********************************************************************************************************************************
 SETTING EA_PBE         =       -76.38814899  AU                              

 Dummy atoms: O1  H1  H2


 Recomputing one-electron integrals since nuclear charges changed


 PROGRAM * SEWARD (Integral evaluation for generally contracted gaussian basis sets)     Author: Roland Lindh, 1990

 Geometry written to block  1 of record 700


 Point group  C1  



 ATOMIC COORDINATES

 NR  ATOM    CHARGE       X              Y              Z

   1  O1      0.00   -0.992729436   -0.096321389   -0.594350729
   2  H1      0.00   -1.780134544    1.413329251    0.021264740
   3  H2      0.00    0.762875870    0.112979130   -0.139024067
   4  O2      8.00    9.267185118    0.049471980    0.507497102
   5  H3      1.00    9.962571874   -1.031597634    1.787840082
   6  C1      6.00   10.145917349   -0.841779394   -1.877637942
   7  H4      1.00    9.331791029    0.388609364   -3.300817203
   8  H5      1.00   12.198091298   -0.745794797   -2.018067133
   9  H6      1.00    9.525439725   -2.769053426   -2.253845817

 Bond lengths in Bohr (Angstrom)

 1-2  1.810534248  1-3  1.825726996  4-5  1.814263596  4-6  2.693579128  6-7  2.049901795
     ( 0.958093464)     ( 0.966133120)     ( 0.960066950)     ( 1.425380690)     ( 1.084761314)

 6-8  2.059211335  6-9  2.059346994
     ( 1.089687711)     ( 1.089759498)

 Bond angles

  2-1-3  103.75741034   4-6-7  106.65459099   4-6-8  111.72059382   4-6-9  111.90879545

  5-4-6  107.61952492   7-6-8  108.69153234   7-6-9  108.37480423   8-6-9  109.35579191

 NUCLEAR CHARGE:                   18
 NUMBER OF PRIMITIVE AOS:        1245
 NUMBER OF SYMMETRY AOS:          930
 NUMBER OF CONTRACTIONS:          861   (  861A   )
 NUMBER OF CORE ORBITALS:           2   (    2A   )
 NUMBER OF VALENCE ORBITALS:       12   (   12A   )

 MOLECULE CHANGED: INITIALIZING OCCUPATION AND DUMP RECORDS


 NUCLEAR REPULSION ENERGY   40.29463209


 Eigenvalues of metric

         1 0.194E-05 0.208E-05 0.259E-05 0.381E-05 0.667E-05 0.932E-05 0.101E-04 0.120E-04


 OPERATOR DM      FOR CENTER  0  COORDINATES:    0.000000    0.000000    0.000000


 **********************************************************************************************************************************
 DATASETS  * FILE   NREC   LENGTH (MB)   RECORD NAMES
              1      19       57.10       500      610      700      900      950      970     1000      129      960     1100   
                                          VAR    BASINP    GEOM    SYMINP    ZMAT    AOBASIS   BASIS     P2S    ABASIS      S 
                                         1400     1410     1200     1210     1080     1600     1650     1700     1800   
                                           T        V       H0       H01     AOSYM     SMH    MOLCAS    OPER     GRID   

              2       6       50.09       700     1000      520     1800     2101     2201   
                                         GEOM     BASIS   MCVARS    GRID      RKS      RKS  

 PROGRAMS   *        TOTAL       INT   RKS-SCF       INT   RKS-SCF       INT
 CPU TIMES  *     15603.28      1.10   6140.21      1.11   9459.24      1.43
 REAL TIME  *     15674.92 SEC
 DISK USED  *       151.92 MB (local),      607.66 MB (total)
 SF USED    *         8.91 MB
 GA USED    *         2.80 MB       (max)       2.80 MB       (current)
 **********************************************************************************************************************************

 Density functional group PBE=PBEX+PBEC
 Functional: PBEX(Automatically generated (new) PBEX)                          Gradient terms: 1
 Functional: PBEC(Automatically generated (new) PBEC)                          Gradient terms: 1
 Use libxcgrid:  F
 Use grid at  1800.2

 Functional: PBEX                      Factor:  1.0000
 Functional: PBEC                      Factor:  1.0000

 Generated new metagrid on record  1800.2 with target accuracy 1.0D-08 and 85440 points in CPU time    0.2
 Computed new grid on record 1800.1 in CPU time    0.3
  695676 words reserved for DFT integration

 PROGRAM * RKS-SCF (Restricted closed shell Kohn-Sham)     Authors: W. Meyer, H.-J. Werner, P.J. Knowles, 1993

 NUMBER OF ELECTRONS:       9+    9-    SPACE SYMMETRY=1    SPIN SYMMETRY: Singlet 
 CONVERGENCE THRESHOLDS:    1.00E-04 (Density)    1.00E-08 (Energy)
 INTEGRAL THRESHOLDS:       1.00E-12 (Initial)    1.00E-12 (Final)
 MAX. NUMBER OF ITERATIONS:       60
 INTERPOLATION TYPE:            DIIS
 INTERPOLATION STEPS:              2 (START)      1 (STEP)
 LEVEL SHIFTS:                  0.00 (CLOSED)  0.00 (OPEN) 



 Use fine grid record 1800.2 for energy threshold  1.0D-08
 Orbital guess generated from atomic densities. Full valence occupancy:   14

 Molecular orbital dump at record        2301.2

 Initial occupancy:   9

 Direct Fock-matrix evaluation.        Authors: Roland Lindh & Martin Schuetz (1993/96)

 Integral Threshold:                  0.1D-11
 Threshold for writing integrals:     0.1D-06
 Prescreening on density matrix:        ON 
 Calculation will be performed fully direct        

 ITERATION   DDIFF            GRAD            ENERGY        2-EL.EN.            DIPOLE MOMENTS         DIIS   CPU(IT)  CPU(TOT)
    1      0.000D+00      0.000D+00      -115.53954615    199.702570    0.59883   -0.79168   -0.08702    0   1078.8   1096.6     start
    2      0.000D+00      0.386D-02      -115.29020288    179.545182   -0.15224    0.21039   -0.03684    1   1079.1   2175.7     diag
    3      0.388D-02      0.741D-02      -115.63501025    193.049416    0.44023   -0.56979   -0.16497    2   1074.3   3250.0     diag
    4      0.262D-02      0.107D-02      -115.64127453    192.829074    0.37319   -0.49171   -0.06762    3   1002.1   4252.1     diag
    5      0.453D-03      0.331D-03      -115.64192253    192.653696    0.37687   -0.49496   -0.08046    4    981.4   5233.5     diag
    6      0.160D-03      0.556D-04      -115.64193980    192.685208    0.37773   -0.49585   -0.08320    5    934.3   6167.8     diag
    7      0.274D-04      0.779D-05      -115.64194017    192.696908    0.37862   -0.49700   -0.08340    6    830.1   6997.9     diag
    8      0.308D-05      0.679D-06      -115.64194017    192.696660    0.37844   -0.49677   -0.08337    7    694.9   7692.8     diag
    9      0.367D-06      0.165D-06      -115.64194017    192.696522    0.37851   -0.49685   -0.08336    0    603.4   8296.2     orth

 Final occupancy:   9

 !RKS STATE  1.1 Energy              -115.641940171453
 Nuclear energy                        40.29463209
 One-electron energy                 -236.92224604
 Two-electron energy                   96.34826124
 Density functional                   -15.36258746     PBEX=-14.78205915 PBEC= -0.58052832
 Virial quotient                       -1.00366601
 !RKS STATE  1.1 Dipole moment          0.37850801    -0.49685364    -0.08335571
 Dipole moment /Debye                   0.96200840    -1.26279329    -0.21185521

 Orbital energies:

         1.1          2.1          3.1          4.1          5.1          6.1          7.1          8.1          9.1         10.1
    -18.751115    -9.921121    -0.934823    -0.620721    -0.459759    -0.392849    -0.381088    -0.295650    -0.231755    -0.024663

        11.1
     -0.002557


 HOMO      9.1    -0.231755 =      -6.3064eV
 LUMO     10.1    -0.024663 =      -0.6711eV
 LUMO-HOMO         0.207093 =       5.6353eV


 **********************************************************************************************************************************
 DATASETS  * FILE   NREC   LENGTH (MB)   RECORD NAMES
              1      19       57.10       500      610      700      900      950      970     1000      129      960     1100   
                                          VAR    BASINP    GEOM    SYMINP    ZMAT    AOBASIS   BASIS     P2S    ABASIS      S 
                                         1400     1410     1200     1210     1080     1600     1650     1700     1800   
                                           T        V       H0       H01     AOSYM     SMH    MOLCAS    OPER     GRID   

              2       7       82.28       700     1000      520     1800     2101     2201     2301   
                                         GEOM     BASIS   MCVARS    GRID      RKS      RKS      RKS  

 PROGRAMS   *        TOTAL   RKS-SCF       INT   RKS-SCF       INT   RKS-SCF       INT
 CPU TIMES  *     23901.29   8298.01      1.10   6140.21      1.11   9459.24      1.43
 REAL TIME  *     24004.26 SEC
 DISK USED  *       187.08 MB (local),      748.30 MB (total)
 SF USED    *         8.91 MB
 GA USED    *         2.80 MB       (max)       2.80 MB       (current)
 **********************************************************************************************************************************
 SETTING EB_PBE         =      -115.64194017  AU                              
 SETTING E_AB_INT       =        -0.00085462  AU                              

 *** results in hartree
 E_AB_INT         =        -0.00085462 AU
 Molecular orbitals read from record     2301.2  Type=RKS/CANONICAL (state 1.1)
 Occupation numbers read from record     2301.2  Type=RKS/RHF (state 1.1)
 Orbital energies read from record       2301.2  Type=RKS/CANONICAL (state 1.1)
 Redundancy group numbers read from rec  2301.2  Type=RKS/RHF (state 1.1)

 RPBE/aug-cc-pV5Z energy=   -115.641940171453

         RKS-SCF         RKS-SCF         RKS-SCF
   -115.64194017    -76.38814899   -192.03094379
 **********************************************************************************************************************************
 Molpro calculation terminated
