
 Primary working directories    : /scratch/sirous/44685/molpro.AcDOSYHgU1
 Secondary working directories  : /scratch/sirous/44685/molpro.AcDOSYHgU1
 Wavefunction directory         : /scratch/sirous/44685/
 Main file repository           : /scratch/sirous/44685/molpro.AcDOSYHgU1/

 id        : karlovklimes

 Nodes                      nprocs
 nc-14.cc.karlov.mff.cuni.cz    4

 Using customized tuning parameters: mindgm=1; mindgv=20; mindgc=4; mindgr=1; noblas=0; minvec=7
 default implementation of scratch files=sf  


 Variables initialized (934), CPU time= 0.01 sec
 ***,CH3C6H4CN+CF3CN+BF3
 memory,500,m
 gdirect
 gthresh,energy=1.d-8,twoint=1.d-19,oneint=1.d-19,zero=1.d-15,orbital=1.d-8,grid=1.d-8
 symmetry,nosym
 geomtyp=xyz
                                                                                 ! Geometry
 geometry={
 O1        -0.786562022    0.045168441     -0.007189119
 H1        0.177706774    0.012695896     -0.006835389
 C1        -1.247990941    -1.290283536     0.001083621
 H2        -2.334277443    -1.258897100     0.000221200
 H3        -0.925965746    -1.849768096     -0.880445382
 H4        -0.927027831    -1.838462882     0.890076520
 O2        2.062741763    -0.049166017     -0.004811934
 H5        2.501945902    0.338986182     -0.764684616
 H6        2.500626057    0.353438262     0.748277598
 }
 
 
 
 basis=avqz
 
 
 
                                                                                 ! Dimer Calculation
 {rks,pbe,accu=1.d-8;orbital,2101.2}
 eab_PBE=energy
 
 
                                                                                 !monomer A
 dummy,7,8,9;                                                                    ! NOW MONOMER B IS DUMMY
 {rks,pbe,accu=1.d-8;orbital,2201.2}
 ea_PBE=energy
                                                                                 !monomer B
 dummy,1,2,3,4,5,6;                                                              !NOW MONOMER A IS DUMMY
 {rks,pbe,accu=1.d-8;orbital,2301.2}
 eb_PBE=energy
 
 E_AB_int=eab_PBE-ea_PBE-eb_PBE
 
 
 text,results in hartree
 show,E_AB_int
 
 Commands  initialized (763), CPU time= 0.02 sec, 617 directives.
 Default parameters read. Elapsed time= 0.20 sec

 Checking input...
 Passed
1


                                         ***  PROGRAM SYSTEM MOLPRO  ***
                                       Copyright, TTI GmbH Stuttgart, 2015
                                    Version 2019.2 linked Jun  8 2019 11:26:33


 **********************************************************************************************************************************
 LABEL *   CH3C6H4CN+CF3CN+BF3                                                           
  64 bit mpp version                                                                     DATE: 13-Oct-19          TIME: 14:20:16  
 **********************************************************************************************************************************

 SHA1:             8135a10abc80eafa5b3ae28ffc55be4890dc4c84
 **********************************************************************************************************************************

 THRESHOLDS:

 ZERO    =  1.00D-15  ONEINT  =  1.00D-19  TWOINT  =  1.00D-19  PREFAC  =  1.00D-14  XXXXXX  =  1.00D-09  EORDER  =  1.00D-04
 ENERGY  =  1.00D-08  ETEST   =  0.00D+00  EDENS   =  0.00D+00  THRDEDEF=  1.00D-06  GRADIENT=  1.00D-02  STEP    =  1.00D-03
 ORBITAL =  1.00D-08  CIVEC   =  1.00D-05  COEFF   =  1.00D-04  PRINTCI =  5.00D-02  PUNCHCI =  9.90D+01  OPTGRAD =  3.00D-04
 OPTENERG=  1.00D-06  OPTSTEP =  3.00D-04  THRGRAD =  1.00D-10  COMPRESS=  1.00D-11  VARMIN  =  1.00D-07  VARMAX  =  1.00D-03
 THRDOUB =  0.00D+00  THRDIV  =  1.00D-05  THRRED  =  1.00D-07  THRPSP  =  1.00D+00  THRDC   =  1.00D-10  THRCS   =  1.00D-10
 THRNRM  =  1.00D-08  THREQ   =  0.00D+00  THRDE   =  1.00D+00  THRREF  =  1.00D-05  SPARFAC =  1.00D+00  THRDLP  =  1.00D-07
 THRDIA  =  1.00D-10  THRDLS  =  1.00D-07  THRGPS  =  0.00D+00  THRKEX  =  0.00D+00  THRDIS  =  2.00D-01  THRVAR  =  1.00D-10
 THRLOC  =  1.00D-06  THRGAP  =  1.00D-06  THRLOCT = -1.00D+00  THRGAPT = -1.00D+00  THRORB  =  1.00D-06  THRMLTP =  0.00D+00
 THRCPQCI=  1.00D-10  KEXTA   =  0.00D+00  THRCOARS=  0.00D+00  SYMTOL  =  1.00D-06  GRADTOL =  1.00D-06  THROVL  =  1.00D-08
 THRORTH =  1.00D-08  GRID    =  1.00D-08  GRIDMAX =  1.00D-03  DTMAX   =  0.00D+00  THROCCDE=  1.00D-01  THROCCDE=  1.00D-01
 THRPRINT=  2.50D-01


 Variable memory set to  500000000 words,  buffer space 

 SETTING GEOMTYP        =    XYZ
 ZSYMEL=NOSYM

 SETTING BASIS          =    AVQZ


 Recomputing integrals since basis changed


 Using spherical harmonics

 Library entry O      S aug-cc-pVQZ          selected for orbital group  1
 Library entry O      P aug-cc-pVQZ          selected for orbital group  1
 Library entry O      D aug-cc-pVQZ          selected for orbital group  1
 Library entry O      F aug-cc-pVQZ          selected for orbital group  1
 Library entry O      G aug-cc-pVQZ          selected for orbital group  1
 Library entry H      S aug-cc-pVQZ          selected for orbital group  2
 Library entry H      P aug-cc-pVQZ          selected for orbital group  2
 Library entry H      D aug-cc-pVQZ          selected for orbital group  2
 Library entry H      F aug-cc-pVQZ          selected for orbital group  2
 Library entry C      S aug-cc-pVQZ          selected for orbital group  3
 Library entry C      P aug-cc-pVQZ          selected for orbital group  3
 Library entry C      D aug-cc-pVQZ          selected for orbital group  3
 Library entry C      F aug-cc-pVQZ          selected for orbital group  3
 Library entry C      G aug-cc-pVQZ          selected for orbital group  3


 PROGRAM * SEWARD (Integral evaluation for generally contracted gaussian basis sets)     Author: Roland Lindh, 1990

 Geometry written to block  1 of record 700


 Point group  C1  



 ATOMIC COORDINATES

 NR  ATOM    CHARGE       X              Y              Z

   1  O1      8.00   -1.486386802    0.085355983   -0.013585466
   2  H1      1.00    0.335817133    0.023991766   -0.012917013
   3  C1      6.00   -2.358361084   -2.438282506    0.002047747
   4  H2      1.00   -4.411145066   -2.378970738    0.000418007
   5  H3      1.00   -1.749821661   -3.495555095   -1.663800640
   6  H4      1.00   -1.751828710   -3.474191337    1.682000853
   7  O2      8.00    3.898016998   -0.092910307   -0.009093237
   8  H5      1.00    4.727992533    0.640591044   -1.445044496
   9  H6      1.00    4.725498388    0.667901517    1.414039725

 Bond lengths in Bohr (Angstrom)

 1-2  1.823237010  1-3  2.670081416  3-4  2.053641307  3-5  2.064750931  3-6  2.064759324
     ( 0.964815476)     ( 1.412946237)     ( 1.086740179)     ( 1.092619139)     ( 1.092623580)

 7-8  1.813515822  7-9  1.813523507
     ( 0.959671245)     ( 0.959675312)

 Bond angles

  1-3-4  107.40559298   1-3-5  112.51964705   1-3-6  112.52114043   2-1-3  107.13200477

  4-3-5  107.98411747   4-3-6  107.98497413   5-3-6  108.23763291   8-7-9  104.05491273

 NUCLEAR CHARGE:                   28
 NUMBER OF PRIMITIVE AOS:         696
 NUMBER OF SYMMETRY AOS:          567
 NUMBER OF CONTRACTIONS:          516   (  516A   )
 NUMBER OF CORE ORBITALS:           3   (    3A   )
 NUMBER OF VALENCE ORBITALS:       18   (   18A   )


 NUCLEAR REPULSION ENERGY   79.34773510


 Eigenvalues of metric

         1 0.112E-04 0.181E-04 0.201E-04 0.280E-04 0.367E-04 0.481E-04 0.539E-04 0.703E-04


 OPERATOR DM      FOR CENTER  0  COORDINATES:    0.000000    0.000000    0.000000


 **********************************************************************************************************************************
 DATASETS  * FILE   NREC   LENGTH (MB)   RECORD NAMES
              1      18       39.85       500      610      700      900      950      970     1000      129      960     1100   
                                          VAR    BASINP    GEOM    SYMINP    ZMAT    AOBASIS   BASIS     P2S    ABASIS      S 
                                         1400     1410     1200     1210     1080     1600     1650     1700   
                                           T        V       H0       H01     AOSYM     SMH    MOLCAS    OPER   

 PROGRAMS   *        TOTAL       INT
 CPU TIMES  *         0.81      0.65
 REAL TIME  *         2.08 SEC
 DISK USED  *        40.42 MB (local),      161.67 MB (total)
 GA USED    *         0.00 MB       (max)       0.00 MB       (current)
 **********************************************************************************************************************************

 Density functional group PBE=PBEX+PBEC
 Functional: PBEX(Automatically generated (new) PBEX)                          Gradient terms: 1
 Functional: PBEC(Automatically generated (new) PBEC)                          Gradient terms: 1
 Use libxcgrid:  F
 Use grid at  1800.2

 Functional: PBEX                      Factor:  1.0000
 Functional: PBEC                      Factor:  1.0000

 Generated new metagrid on record  1800.2 with target accuracy 1.0D-08 and 83900 points in CPU time    0.2
 Computed new grid on record 1800.1 in CPU time    0.3
  416226 words reserved for DFT integration

 PROGRAM * RKS-SCF (Restricted closed shell Kohn-Sham)     Authors: W. Meyer, H.-J. Werner, P.J. Knowles, 1993

 NUMBER OF ELECTRONS:      14+   14-    SPACE SYMMETRY=1    SPIN SYMMETRY: Singlet 
 CONVERGENCE THRESHOLDS:    1.00E-04 (Density)    1.00E-08 (Energy)
 INTEGRAL THRESHOLDS:       1.00E-11 (Initial)    1.00E-11 (Final)
 MAX. NUMBER OF ITERATIONS:       60
 INTERPOLATION TYPE:            DIIS
 INTERPOLATION STEPS:              2 (START)      1 (STEP)
 LEVEL SHIFTS:                  0.00 (CLOSED)  0.00 (OPEN) 



 Use fine grid record 1800.2 for energy threshold  1.0D-08
 Orbital guess generated from atomic densities. Full valence occupancy:   21

 Molecular orbital dump at record        2101.2

 Initial occupancy:  14

 Direct Fock-matrix evaluation.        Authors: Roland Lindh & Martin Schuetz (1993/96)

 Integral Threshold:                  0.1D-10
 Threshold for writing integrals:     0.1D-06
 Prescreening on density matrix:        ON 
 Calculation will be performed fully direct        

 ITERATION   DDIFF            GRAD            ENERGY        2-EL.EN.            DIPOLE MOMENTS         DIIS   CPU(IT)  CPU(TOT)
    1      0.000D+00      0.000D+00      -191.85698233    357.910303    1.61554   -0.03354   -0.00131    0    110.6    118.3     start
    2      0.000D+00      0.559D-02      -191.33728569    322.028109    0.25329    0.18615   -0.00032    1    109.5    227.8     diag
    3      0.816D-02      0.112D-01      -192.02630329    346.652367    1.22328   -0.02811   -0.00075    2    109.0    336.9     diag
    4      0.548D-02      0.108D-02      -192.03168108    346.252586    1.23640    0.07810   -0.00133    3    102.5    439.4     diag
    5      0.845D-03      0.512D-03      -192.03311173    345.957067    1.23212    0.03703   -0.00104    4    101.2    540.6     diag
    6      0.318D-03      0.135D-03      -192.03317614    345.962064    1.22655    0.05436   -0.00117    5     96.7    637.3     diag
    7      0.813D-04      0.657D-04      -192.03319792    345.998244    1.22630    0.04560   -0.00111    6     93.2    730.5     diag
    8      0.317D-04      0.835D-05      -192.03319828    346.008702    1.22733    0.04585   -0.00112    7     86.9    817.4     diag
    9      0.389D-05      0.996D-06      -192.03319829    346.009211    1.22707    0.04598   -0.00112    8     75.6    893.1     diag
   10      0.626D-06      0.251D-06      -192.03319829    346.008625    1.22717    0.04592   -0.00112    0     69.9    963.0     orth

 Final occupancy:  14

 !RKS STATE  1.1 Energy              -192.033198285319
 Nuclear energy                        79.34773510
 One-electron energy                 -419.76510064
 Two-electron energy                  173.00431263
 Density functional                   -24.62014538     PBEX=-23.71083226 PBEC= -0.90931312
 Virial quotient                       -1.00353234
 !RKS STATE  1.1 Dipole moment          1.22716728     0.04591771    -0.00111669
 Dipole moment /Debye                   3.11894382     0.11670352    -0.00283817

 Orbital energies:

         1.1          2.1          3.1          4.1          5.1          6.1          7.1          8.1          9.1         10.1
    -18.783041   -18.719659    -9.900812    -0.962067    -0.909556    -0.598285    -0.511879    -0.442227    -0.375746    -0.372022

        11.1         12.1         13.1         14.1         15.1         16.1
     -0.360590    -0.299886    -0.266515    -0.207054    -0.047339    -0.000707


 HOMO     14.1    -0.207054 =      -5.6342eV
 LUMO     15.1    -0.047339 =      -1.2882eV
 LUMO-HOMO         0.159715 =       4.3461eV


 **********************************************************************************************************************************
 DATASETS  * FILE   NREC   LENGTH (MB)   RECORD NAMES
              1      19       39.85       500      610      700      900      950      970     1000      129      960     1100   
                                          VAR    BASINP    GEOM    SYMINP    ZMAT    AOBASIS   BASIS     P2S    ABASIS      S 
                                         1400     1410     1200     1210     1080     1600     1650     1700     1800   
                                           T        V       H0       H01     AOSYM     SMH    MOLCAS    OPER     GRID   

              2       5        8.32       700     1000      520     1800     2101   
                                         GEOM     BASIS   MCVARS    GRID      RKS  

 PROGRAMS   *        TOTAL   RKS-SCF       INT
 CPU TIMES  *       964.38    963.57      0.65
 REAL TIME  *       969.63 SEC
 DISK USED  *        66.43 MB (local),      265.72 MB (total)
 SF USED    *         3.20 MB
 GA USED    *         2.75 MB       (max)       2.75 MB       (current)
 **********************************************************************************************************************************
 SETTING EAB_PBE        =      -192.03319829  AU                              

 Dummy atoms: O2  H5  H6


 Recomputing one-electron integrals since nuclear charges changed


 PROGRAM * SEWARD (Integral evaluation for generally contracted gaussian basis sets)     Author: Roland Lindh, 1990

 Geometry written to block  1 of record 700


 Point group  C1  



 ATOMIC COORDINATES

 NR  ATOM    CHARGE       X              Y              Z

   1  O1      8.00   -1.486386802    0.085355983   -0.013585466
   2  H1      1.00    0.335817133    0.023991766   -0.012917013
   3  C1      6.00   -2.358361084   -2.438282506    0.002047747
   4  H2      1.00   -4.411145066   -2.378970738    0.000418007
   5  H3      1.00   -1.749821661   -3.495555095   -1.663800640
   6  H4      1.00   -1.751828710   -3.474191337    1.682000853
   7  O2      0.00    3.898016998   -0.092910307   -0.009093237
   8  H5      0.00    4.727992533    0.640591044   -1.445044496
   9  H6      0.00    4.725498388    0.667901517    1.414039725

 Bond lengths in Bohr (Angstrom)

 1-2  1.823237010  1-3  2.670081416  3-4  2.053641307  3-5  2.064750931  3-6  2.064759324
     ( 0.964815476)     ( 1.412946237)     ( 1.086740179)     ( 1.092619139)     ( 1.092623580)

 7-8  1.813515822  7-9  1.813523507
     ( 0.959671245)     ( 0.959675312)

 Bond angles

  1-3-4  107.40559298   1-3-5  112.51964705   1-3-6  112.52114043   2-1-3  107.13200477

  4-3-5  107.98411747   4-3-6  107.98497413   5-3-6  108.23763291   8-7-9  104.05491273

 NUCLEAR CHARGE:                   18
 NUMBER OF PRIMITIVE AOS:         696
 NUMBER OF SYMMETRY AOS:          567
 NUMBER OF CONTRACTIONS:          516   (  516A   )
 NUMBER OF CORE ORBITALS:           2   (    2A   )
 NUMBER OF VALENCE ORBITALS:       12   (   12A   )

 MOLECULE CHANGED: INITIALIZING OCCUPATION AND DUMP RECORDS


 NUCLEAR REPULSION ENERGY   40.42326361


 Eigenvalues of metric

         1 0.112E-04 0.181E-04 0.201E-04 0.280E-04 0.367E-04 0.481E-04 0.539E-04 0.703E-04


 OPERATOR DM      FOR CENTER  0  COORDINATES:    0.000000    0.000000    0.000000


 **********************************************************************************************************************************
 DATASETS  * FILE   NREC   LENGTH (MB)   RECORD NAMES
              1      19       39.85       500      610      700      900      950      970     1000      129      960     1100   
                                          VAR    BASINP    GEOM    SYMINP    ZMAT    AOBASIS   BASIS     P2S    ABASIS      S 
                                         1400     1410     1200     1210     1080     1600     1650     1700     1800   
                                           T        V       H0       H01     AOSYM     SMH    MOLCAS    OPER     GRID   

              2       5        8.32       700     1000      520     1800     2101   
                                         GEOM     BASIS   MCVARS    GRID      RKS  

 PROGRAMS   *        TOTAL       INT   RKS-SCF       INT
 CPU TIMES  *       964.73      0.34    963.57      0.65
 REAL TIME  *       970.09 SEC
 DISK USED  *        66.43 MB (local),      265.72 MB (total)
 SF USED    *         3.20 MB
 GA USED    *         2.75 MB       (max)       2.75 MB       (current)
 **********************************************************************************************************************************

 Density functional group PBE=PBEX+PBEC
 Functional: PBEX(Automatically generated (new) PBEX)                          Gradient terms: 1
 Functional: PBEC(Automatically generated (new) PBEC)                          Gradient terms: 1
 Use libxcgrid:  F
 Use grid at  1800.2

 Functional: PBEX                      Factor:  1.0000
 Functional: PBEC                      Factor:  1.0000

 Generated new metagrid on record  1800.2 with target accuracy 1.0D-08 and 83900 points in CPU time    0.3
 Computed new grid on record 1800.1 in CPU time    0.4
  416226 words reserved for DFT integration

 PROGRAM * RKS-SCF (Restricted closed shell Kohn-Sham)     Authors: W. Meyer, H.-J. Werner, P.J. Knowles, 1993

 NUMBER OF ELECTRONS:       9+    9-    SPACE SYMMETRY=1    SPIN SYMMETRY: Singlet 
 CONVERGENCE THRESHOLDS:    1.00E-04 (Density)    1.00E-08 (Energy)
 INTEGRAL THRESHOLDS:       1.00E-11 (Initial)    1.00E-11 (Final)
 MAX. NUMBER OF ITERATIONS:       60
 INTERPOLATION TYPE:            DIIS
 INTERPOLATION STEPS:              2 (START)      1 (STEP)
 LEVEL SHIFTS:                  0.00 (CLOSED)  0.00 (OPEN) 



 Use fine grid record 1800.2 for energy threshold  1.0D-08
 Orbital guess generated from atomic densities. Full valence occupancy:   14

 Molecular orbital dump at record        2201.2

 Initial occupancy:   9

 Direct Fock-matrix evaluation.        Authors: Roland Lindh & Martin Schuetz (1993/96)

 Integral Threshold:                  0.1D-10
 Threshold for writing integrals:     0.1D-06
 Prescreening on density matrix:        ON 
 Calculation will be performed fully direct        

 ITERATION   DDIFF            GRAD            ENERGY        2-EL.EN.            DIPOLE MOMENTS         DIIS   CPU(IT)  CPU(TOT)
    1      0.000D+00      0.000D+00      -115.53687119    199.939677    0.63293   -0.77088    0.00489    0    109.3    117.2     start
    2      0.000D+00      0.500D-02      -115.28757785    179.772689   -0.20880    0.19545   -0.00131    1    106.2    223.4     diag
    3      0.617D-02      0.959D-02      -115.63259165    193.284398    0.38580   -0.61915    0.00391    2    105.5    328.9     diag
    4      0.388D-02      0.136D-02      -115.63859315    193.064231    0.38269   -0.48379    0.00305    3    100.0    428.9     diag
    5      0.722D-03      0.423D-03      -115.63922161    192.888098    0.37784   -0.49289    0.00311    4     97.5    526.4     diag
    6      0.210D-03      0.707D-04      -115.63923855    192.919470    0.37643   -0.49607    0.00313    5     92.6    619.0     diag
    7      0.261D-04      0.987D-05      -115.63923891    192.930984    0.37738   -0.49723    0.00314    6     83.3    702.3     diag
    8      0.430D-05      0.828D-06      -115.63923891    192.930871    0.37716   -0.49702    0.00314    7     69.7    772.0     diag
    9      0.594D-06      0.238D-06      -115.63923891    192.930716    0.37726   -0.49708    0.00314    0     62.0    834.0     orth

 Final occupancy:   9

 !RKS STATE  1.1 Energy              -115.639238910391
 Nuclear energy                        40.42326361
 One-electron energy                 -237.16361379
 Two-electron energy                   96.46535798
 Density functional                   -15.36424671     PBEX=-14.78319275 PBEC= -0.58105396
 Virial quotient                       -1.00377402
 !RKS STATE  1.1 Dipole moment          0.37726229    -0.49708026     0.00313884
 Dipole moment /Debye                   0.95884228    -1.26336926     0.00797761

 Orbital energies:

         1.1          2.1          3.1          4.1          5.1          6.1          7.1          8.1          9.1         10.1
    -18.751691    -9.919986    -0.938647    -0.619608    -0.462118    -0.392020    -0.382222    -0.295711    -0.231724    -0.025024

        11.1
     -0.001915


 HOMO      9.1    -0.231724 =      -6.3055eV
 LUMO     10.1    -0.025024 =      -0.6809eV
 LUMO-HOMO         0.206699 =       5.6246eV


 **********************************************************************************************************************************
 DATASETS  * FILE   NREC   LENGTH (MB)   RECORD NAMES
              1      19       39.85       500      610      700      900      950      970     1000      129      960     1100   
                                          VAR    BASINP    GEOM    SYMINP    ZMAT    AOBASIS   BASIS     P2S    ABASIS      S 
                                         1400     1410     1200     1210     1080     1600     1650     1700     1800   
                                           T        V       H0       H01     AOSYM     SMH    MOLCAS    OPER     GRID   

              2       6       21.49       700     1000      520     1800     2101     2201   
                                         GEOM     BASIS   MCVARS    GRID      RKS      RKS  

 PROGRAMS   *        TOTAL   RKS-SCF       INT   RKS-SCF       INT
 CPU TIMES  *      1799.39    834.66      0.34    963.57      0.65
 REAL TIME  *      1807.37 SEC
 DISK USED  *        78.54 MB (local),      314.15 MB (total)
 SF USED    *         3.20 MB
 GA USED    *         2.75 MB       (max)       2.75 MB       (current)
 **********************************************************************************************************************************
 SETTING EA_PBE         =      -115.63923891  AU                              

 Dummy atoms: O1  H1  C1  H2  H3  H4


 Recomputing one-electron integrals since nuclear charges changed


 PROGRAM * SEWARD (Integral evaluation for generally contracted gaussian basis sets)     Author: Roland Lindh, 1990

 Geometry written to block  1 of record 700


 Point group  C1  



 ATOMIC COORDINATES

 NR  ATOM    CHARGE       X              Y              Z

   1  O1      0.00   -1.486386802    0.085355983   -0.013585466
   2  H1      0.00    0.335817133    0.023991766   -0.012917013
   3  C1      0.00   -2.358361084   -2.438282506    0.002047747
   4  H2      0.00   -4.411145066   -2.378970738    0.000418007
   5  H3      0.00   -1.749821661   -3.495555095   -1.663800640
   6  H4      0.00   -1.751828710   -3.474191337    1.682000853
   7  O2      8.00    3.898016998   -0.092910307   -0.009093237
   8  H5      1.00    4.727992533    0.640591044   -1.445044496
   9  H6      1.00    4.725498388    0.667901517    1.414039725

 Bond lengths in Bohr (Angstrom)

 1-2  1.823237010  1-3  2.670081416  3-4  2.053641307  3-5  2.064750931  3-6  2.064759324
     ( 0.964815476)     ( 1.412946237)     ( 1.086740179)     ( 1.092619139)     ( 1.092623580)

 7-8  1.813515822  7-9  1.813523507
     ( 0.959671245)     ( 0.959675312)

 Bond angles

  1-3-4  107.40559298   1-3-5  112.51964705   1-3-6  112.52114043   2-1-3  107.13200477

  4-3-5  107.98411747   4-3-6  107.98497413   5-3-6  108.23763291   8-7-9  104.05491273

 NUCLEAR CHARGE:                   10
 NUMBER OF PRIMITIVE AOS:         696
 NUMBER OF SYMMETRY AOS:          567
 NUMBER OF CONTRACTIONS:          516   (  516A   )
 NUMBER OF CORE ORBITALS:           1   (    1A   )
 NUMBER OF VALENCE ORBITALS:        6   (    6A   )

 MOLECULE CHANGED: INITIALIZING OCCUPATION AND DUMP RECORDS


 NUCLEAR REPULSION ENERGY    9.17236909


 Eigenvalues of metric

         1 0.112E-04 0.181E-04 0.201E-04 0.280E-04 0.367E-04 0.481E-04 0.539E-04 0.703E-04


 OPERATOR DM      FOR CENTER  0  COORDINATES:    0.000000    0.000000    0.000000


 **********************************************************************************************************************************
 DATASETS  * FILE   NREC   LENGTH (MB)   RECORD NAMES
              1      19       39.85       500      610      700      900      950      970     1000      129      960     1100   
                                          VAR    BASINP    GEOM    SYMINP    ZMAT    AOBASIS   BASIS     P2S    ABASIS      S 
                                         1400     1410     1200     1210     1080     1600     1650     1700     1800   
                                           T        V       H0       H01     AOSYM     SMH    MOLCAS    OPER     GRID   

              2       6       21.49       700     1000      520     1800     2101     2201   
                                         GEOM     BASIS   MCVARS    GRID      RKS      RKS  

 PROGRAMS   *        TOTAL       INT   RKS-SCF       INT   RKS-SCF       INT
 CPU TIMES  *      1799.74      0.34    834.66      0.34    963.57      0.65
 REAL TIME  *      1807.82 SEC
 DISK USED  *        78.54 MB (local),      314.15 MB (total)
 SF USED    *         3.20 MB
 GA USED    *         2.75 MB       (max)       2.75 MB       (current)
 **********************************************************************************************************************************

 Density functional group PBE=PBEX+PBEC
 Functional: PBEX(Automatically generated (new) PBEX)                          Gradient terms: 1
 Functional: PBEC(Automatically generated (new) PBEC)                          Gradient terms: 1
 Use libxcgrid:  F
 Use grid at  1800.2

 Functional: PBEX                      Factor:  1.0000
 Functional: PBEC                      Factor:  1.0000

 Generated new metagrid on record  1800.2 with target accuracy 1.0D-08 and 83900 points in CPU time    0.2
 Computed new grid on record 1800.1 in CPU time    0.3
  416226 words reserved for DFT integration

 PROGRAM * RKS-SCF (Restricted closed shell Kohn-Sham)     Authors: W. Meyer, H.-J. Werner, P.J. Knowles, 1993

 NUMBER OF ELECTRONS:       5+    5-    SPACE SYMMETRY=1    SPIN SYMMETRY: Singlet 
 CONVERGENCE THRESHOLDS:    1.00E-04 (Density)    1.00E-08 (Energy)
 INTEGRAL THRESHOLDS:       1.00E-11 (Initial)    1.00E-11 (Final)
 MAX. NUMBER OF ITERATIONS:       60
 INTERPOLATION TYPE:            DIIS
 INTERPOLATION STEPS:              2 (START)      1 (STEP)
 LEVEL SHIFTS:                  0.00 (CLOSED)  0.00 (OPEN) 



 Use fine grid record 1800.2 for energy threshold  1.0D-08
 Orbital guess generated from atomic densities. Full valence occupancy:    7

 Molecular orbital dump at record        2301.2

 Initial occupancy:   5

 Direct Fock-matrix evaluation.        Authors: Roland Lindh & Martin Schuetz (1993/96)

 Integral Threshold:                  0.1D-10
 Threshold for writing integrals:     0.1D-06
 Prescreening on density matrix:        ON 
 Calculation will be performed fully direct        

 ITERATION   DDIFF            GRAD            ENERGY        2-EL.EN.            DIPOLE MOMENTS         DIIS   CPU(IT)  CPU(TOT)
    1      0.000D+00      0.000D+00       -76.30015950     98.245009    0.81582    0.73547   -0.00631    0    107.1    114.6     start
    2      0.000D+00      0.686D-02       -75.91249697     81.817335   -0.33252   -0.30520    0.00261    1    106.6    221.2     diag
    3      0.571D-02      0.155D-01       -76.38591453     93.634196    0.54830    0.49427   -0.00424    2    106.7    327.9     diag
    4      0.423D-02      0.411D-03       -76.38633888     93.228872    0.52599    0.47408   -0.00407    3     98.4    426.3     diag
    5      0.167D-03      0.895D-04       -76.38635234     93.279285    0.52493    0.47312   -0.00406    4     89.0    515.2     diag
    6      0.209D-04      0.201D-04       -76.38635312     93.289972    0.52663    0.47465   -0.00407    5     81.4    596.7     diag
    7      0.505D-05      0.812D-06       -76.38635312     93.289977    0.52654    0.47457   -0.00407    6     62.5    659.2     diag
    8      0.195D-06      0.646D-07       -76.38635312     93.290081    0.52656    0.47459   -0.00407    0     42.9    702.1     orth

 Final occupancy:   5

 !RKS STATE  1.1 Energy               -76.386353122212
 Nuclear energy                         9.17236909
 One-electron energy                 -122.96325507
 Two-electron energy                   46.64504054
 Density functional                    -9.24050768     PBEX=-8.91601953 PBEC=-0.32448815
 Virial quotient                       -1.00337312
 !RKS STATE  1.1 Dipole moment          0.52655670     0.47458532    -0.00407185
 Dipole moment /Debye                   1.33828598     1.20619656    -0.01034893

 Orbital energies:

         1.1          2.1          3.1          4.1          5.1          6.1          7.1
    -18.753738    -0.931777    -0.483876    -0.343929    -0.266451    -0.034474     0.015989


 HOMO      5.1    -0.266451 =      -7.2505eV
 LUMO      6.1    -0.034474 =      -0.9381eV
 LUMO-HOMO         0.231978 =       6.3124eV


 **********************************************************************************************************************************
 DATASETS  * FILE   NREC   LENGTH (MB)   RECORD NAMES
              1      19       39.85       500      610      700      900      950      970     1000      129      960     1100   
                                          VAR    BASINP    GEOM    SYMINP    ZMAT    AOBASIS   BASIS     P2S    ABASIS      S 
                                         1400     1410     1200     1210     1080     1600     1650     1700     1800   
                                           T        V       H0       H01     AOSYM     SMH    MOLCAS    OPER     GRID   

              2       7       34.66       700     1000      520     1800     2101     2201     2301   
                                         GEOM     BASIS   MCVARS    GRID      RKS      RKS      RKS  

 PROGRAMS   *        TOTAL   RKS-SCF       INT   RKS-SCF       INT   RKS-SCF       INT
 CPU TIMES  *      2502.43    702.69      0.34    834.66      0.34    963.57      0.65
 REAL TIME  *      2512.77 SEC
 DISK USED  *        90.64 MB (local),      362.58 MB (total)
 SF USED    *         3.20 MB
 GA USED    *         2.75 MB       (max)       2.75 MB       (current)
 **********************************************************************************************************************************
 SETTING EB_PBE         =       -76.38635312  AU                              
 SETTING E_AB_INT       =        -0.00760625  AU                              

 *** results in hartree
 E_AB_INT         =        -0.00760625 AU
 Molecular orbitals read from record     2301.2  Type=RKS/CANONICAL (state 1.1)
 Occupation numbers read from record     2301.2  Type=RKS/RHF (state 1.1)
 Orbital energies read from record       2301.2  Type=RKS/CANONICAL (state 1.1)
 Redundancy group numbers read from rec  2301.2  Type=RKS/RHF (state 1.1)

 RPBE/aug-cc-pVQZ energy=    -76.386353122212

         RKS-SCF         RKS-SCF         RKS-SCF
    -76.38635312   -115.63923891   -192.03319829
 **********************************************************************************************************************************
 Molpro calculation terminated
