
 Primary working directories    : /scratch/sirous/43119/molpro.HnrhnTnV18
 Secondary working directories  : /scratch/sirous/43119/molpro.HnrhnTnV18
 Wavefunction directory         : /scratch/sirous/43119/
 Main file repository           : /scratch/sirous/43119/molpro.HnrhnTnV18/

 id        : karlovklimes

 Nodes                      nprocs
 nc-16.cc.karlov.mff.cuni.cz    4

 Using customized tuning parameters: mindgm=1; mindgv=20; mindgc=4; mindgr=1; noblas=0; minvec=7
 default implementation of scratch files=sf  


 Variables initialized (934), CPU time= 0.00 sec
 ***,CH3C6H4CN+CF3CN+BF3
 memory,500,m
 gdirect
 gthresh,energy=1.d-8,twoint=1.d-19,oneint=1.d-19,zero=1.d-15,orbital=1.d-8,grid=1.d-8
 symmetry,nosym
 geomtyp=xyz
                                                                                 ! Geometry
 geometry={
 O1        -0.702196054    -0.056060256     0.009942262
 H1        -1.022193224    0.846775782     -0.011488714
 H2        0.257521062    0.042121496     0.005218999
 O2        3.0734246728048378    0.02002754392784048     -0.0013763600424192258
 H3        3.450046287804838    -0.4183525220721595     0.7647480219575807
 H4        3.445688989804838    -0.4561854310721595     -0.7467788620424193
 }
 
 
 
 basis=avdz
 
 
 
                                                                                 ! Dimer Calculation
 {rks,pbe,accu=1.d-8;orbital,2101.2}
 eab_PBE=energy
 
 
                                                                                 !monomer A
 dummy,4,5,6;                                                                    ! NOW MONOMER B IS DUMMY
 {rks,pbe,accu=1.d-8;orbital,2201.2}
 ea_PBE=energy
                                                                                 !monomer B
 dummy,1,2,3;                                                                    !NOW MONOMER A IS DUMMY
 {rks,pbe,accu=1.d-8;orbital,2301.2}
 eb_PBE=energy
 
 E_AB_int=eab_PBE-ea_PBE-eb_PBE
 
 
 text,results in hartree
 show,E_AB_int
 
 Commands  initialized (763), CPU time= 0.02 sec, 617 directives.
 Default parameters read. Elapsed time= 0.21 sec

 Checking input...
 Passed
1


                                         ***  PROGRAM SYSTEM MOLPRO  ***
                                       Copyright, TTI GmbH Stuttgart, 2015
                                    Version 2019.2 linked Jun  8 2019 11:26:33


 **********************************************************************************************************************************
 LABEL *   CH3C6H4CN+CF3CN+BF3                                                           
  64 bit mpp version                                                                     DATE: 06-Oct-19          TIME: 17:53:37  
 **********************************************************************************************************************************

 SHA1:             8135a10abc80eafa5b3ae28ffc55be4890dc4c84
 **********************************************************************************************************************************

 THRESHOLDS:

 ZERO    =  1.00D-15  ONEINT  =  1.00D-19  TWOINT  =  1.00D-19  PREFAC  =  1.00D-14  XXXXXX  =  1.00D-09  EORDER  =  1.00D-04
 ENERGY  =  1.00D-08  ETEST   =  0.00D+00  EDENS   =  0.00D+00  THRDEDEF=  1.00D-06  GRADIENT=  1.00D-02  STEP    =  1.00D-03
 ORBITAL =  1.00D-08  CIVEC   =  1.00D-05  COEFF   =  1.00D-04  PRINTCI =  5.00D-02  PUNCHCI =  9.90D+01  OPTGRAD =  3.00D-04
 OPTENERG=  1.00D-06  OPTSTEP =  3.00D-04  THRGRAD =  1.00D-10  COMPRESS=  1.00D-11  VARMIN  =  1.00D-07  VARMAX  =  1.00D-03
 THRDOUB =  0.00D+00  THRDIV  =  1.00D-05  THRRED  =  1.00D-07  THRPSP  =  1.00D+00  THRDC   =  1.00D-10  THRCS   =  1.00D-10
 THRNRM  =  1.00D-08  THREQ   =  0.00D+00  THRDE   =  1.00D+00  THRREF  =  1.00D-05  SPARFAC =  1.00D+00  THRDLP  =  1.00D-07
 THRDIA  =  1.00D-10  THRDLS  =  1.00D-07  THRGPS  =  0.00D+00  THRKEX  =  0.00D+00  THRDIS  =  2.00D-01  THRVAR  =  1.00D-10
 THRLOC  =  1.00D-06  THRGAP  =  1.00D-06  THRLOCT = -1.00D+00  THRGAPT = -1.00D+00  THRORB  =  1.00D-06  THRMLTP =  0.00D+00
 THRCPQCI=  1.00D-10  KEXTA   =  0.00D+00  THRCOARS=  0.00D+00  SYMTOL  =  1.00D-06  GRADTOL =  1.00D-06  THROVL  =  1.00D-08
 THRORTH =  1.00D-08  GRID    =  1.00D-08  GRIDMAX =  1.00D-03  DTMAX   =  0.00D+00  THROCCDE=  1.00D-01  THROCCDE=  1.00D-01
 THRPRINT=  2.50D-01


 Variable memory set to  500000000 words,  buffer space 

 SETTING GEOMTYP        =    XYZ
 ZSYMEL=NOSYM

 SETTING BASIS          =    AVDZ


 Recomputing integrals since basis changed


 Using spherical harmonics

 Library entry O      S aug-cc-pVDZ          selected for orbital group  1
 Library entry O      P aug-cc-pVDZ          selected for orbital group  1
 Library entry O      D aug-cc-pVDZ          selected for orbital group  1
 Library entry H      S aug-cc-pVDZ          selected for orbital group  2
 Library entry H      P aug-cc-pVDZ          selected for orbital group  2


 PROGRAM * SEWARD (Integral evaluation for generally contracted gaussian basis sets)     Author: Roland Lindh, 1990

 Geometry written to block  1 of record 700


 Point group  C1  



 ATOMIC COORDINATES

 NR  ATOM    CHARGE       X              Y              Z

   1  O1      8.00   -1.326958228   -0.105938530    0.018788152
   2  H1      1.00   -1.931665240    1.600174317   -0.021710523
   3  H2      1.00    0.486644278    0.079598091    0.009862479
   4  O2      8.00    5.807930896    0.037846573   -0.002600944
   5  H3      1.00    6.519642601   -0.790571690    1.445164316
   6  H4      1.00    6.511408501   -0.862065527   -1.411207525

 Bond lengths in Bohr (Angstrom)

 1-2  1.810561173  1-3  1.823090112  4-5  1.813514438  4-6  1.813531094
     ( 0.958107712)     ( 0.964737741)     ( 0.959670512)     ( 0.959679326)

 Bond angles

  2-1-3  103.66482512   5-4-6  103.95523303

 NUCLEAR CHARGE:                   20
 NUMBER OF PRIMITIVE AOS:         118
 NUMBER OF SYMMETRY AOS:          114
 NUMBER OF CONTRACTIONS:           82   (   82A   )
 NUMBER OF CORE ORBITALS:           2   (    2A   )
 NUMBER OF VALENCE ORBITALS:       12   (   12A   )


 NUCLEAR REPULSION ENERGY   32.35700738


 Eigenvalues of metric

         1 0.215E-02 0.245E-02 0.280E-02 0.293E-02 0.863E-02 0.105E-01 0.129E-01 0.162E-01


 OPERATOR DM      FOR CENTER  0  COORDINATES:    0.000000    0.000000    0.000000


 **********************************************************************************************************************************
 DATASETS  * FILE   NREC   LENGTH (MB)   RECORD NAMES
              1      18       30.29       500      610      700      900      950      970     1000      129      960     1100   
                                          VAR    BASINP    GEOM    SYMINP    ZMAT    AOBASIS   BASIS     P2S    ABASIS      S 
                                         1400     1410     1200     1210     1080     1600     1650     1700   
                                           T        V       H0       H01     AOSYM     SMH    MOLCAS    OPER   

 PROGRAMS   *        TOTAL       INT
 CPU TIMES  *         0.46      0.26
 REAL TIME  *         1.70 SEC
 DISK USED  *        30.66 MB (local),      122.64 MB (total)
 GA USED    *         0.00 MB       (max)       0.00 MB       (current)
 **********************************************************************************************************************************

 Density functional group PBE=PBEX+PBEC
 Functional: PBEX(Automatically generated (new) PBEX)                          Gradient terms: 1
 Functional: PBEC(Automatically generated (new) PBEC)                          Gradient terms: 1
 Use libxcgrid:  F
 Use grid at  1800.2

 Functional: PBEX                      Factor:  1.0000
 Functional: PBEC                      Factor:  1.0000

 Generated new metagrid on record  1800.2 with target accuracy 1.0D-08 and 58676 points in CPU time    0.2
 Computed new grid on record 1800.1 in CPU time    0.2
   69126 words reserved for DFT integration

 PROGRAM * RKS-SCF (Restricted closed shell Kohn-Sham)     Authors: W. Meyer, H.-J. Werner, P.J. Knowles, 1993

 NUMBER OF ELECTRONS:      10+   10-    SPACE SYMMETRY=1    SPIN SYMMETRY: Singlet 
 CONVERGENCE THRESHOLDS:    1.00E-04 (Density)    1.00E-08 (Energy)
 INTEGRAL THRESHOLDS:       1.00E-11 (Initial)    1.00E-11 (Final)
 MAX. NUMBER OF ITERATIONS:       60
 INTERPOLATION TYPE:            DIIS
 INTERPOLATION STEPS:              2 (START)      1 (STEP)
 LEVEL SHIFTS:                  0.00 (CLOSED)  0.00 (OPEN) 



 Use fine grid record 1800.2 for energy threshold  1.0D-08
 Orbital guess generated from atomic densities. Full valence occupancy:   14

 Molecular orbital dump at record        2101.2

 Initial occupancy:  10

 Direct Fock-matrix evaluation.        Authors: Roland Lindh & Martin Schuetz (1993/96)

 Integral Threshold:                  0.1D-10
 Threshold for writing integrals:     0.1D-06
 Prescreening on density matrix:        ON 
 Calculation will be performed fully direct        

 ITERATION   DDIFF            GRAD            ENERGY        2-EL.EN.            DIPOLE MOMENTS         DIIS   CPU(IT)  CPU(TOT)
    1      0.000D+00      0.000D+00      -152.57629310    223.373724    1.30079    0.07826   -0.00503    0      2.8      5.1     start
    2      0.000D+00      0.162D-01      -151.98485348    194.035668    0.02333   -0.03154    0.00070    1      1.5      6.6     diag
    3      0.443D-01      0.358D-01      -152.72191449    214.710226    0.94746    0.04989   -0.00349    2      1.5      8.2     diag
    4      0.299D-01      0.699D-03      -152.72226518    214.194283    0.93911    0.03882   -0.00320    3      1.5      9.7     diag
    5      0.916D-03      0.241D-03      -152.72228301    214.233491    0.93506    0.04976   -0.00346    4      1.5     11.2     diag
    6      0.305D-03      0.156D-03      -152.72229561    214.254462    0.93487    0.04438   -0.00333    5      1.5     12.7     diag
    7      0.149D-03      0.301D-04      -152.72229612    214.266224    0.93593    0.04492   -0.00334    6      1.5     14.2     diag
    8      0.265D-04      0.105D-05      -152.72229612    214.266634    0.93590    0.04495   -0.00334    7      1.5     15.7     diag
    9      0.114D-05      0.271D-06      -152.72229612    214.266777    0.93593    0.04494   -0.00334    0      1.6     17.3     orth

 Final occupancy:  10

 !RKS STATE  1.1 Energy              -152.722296117769
 Nuclear energy                        32.35700738
 One-electron energy                 -273.75317035
 Two-electron energy                  107.13338862
 Density functional                   -18.45952177     PBEX=-17.80822616 PBEC= -0.65129561
 Virial quotient                       -1.00568530
 !RKS STATE  1.1 Dipole moment          0.93592604     0.04493580    -0.00334324
 Dipole moment /Debye                   2.37873091     0.11420793    -0.00849712

 Orbital energies:

         1.1          2.1          3.1          4.1          5.1          6.1          7.1          8.1          9.1         10.1
    -18.792492   -18.765805    -0.947687    -0.920500    -0.496908    -0.469429    -0.358885    -0.331470    -0.279309    -0.252800

        11.1         12.1
     -0.045355    -0.013082


 HOMO     10.1    -0.252800 =      -6.8790eV
 LUMO     11.1    -0.045355 =      -1.2342eV
 LUMO-HOMO         0.207445 =       5.6449eV


 **********************************************************************************************************************************
 DATASETS  * FILE   NREC   LENGTH (MB)   RECORD NAMES
              1      19       30.29       500      610      700      900      950      970     1000      129      960     1100   
                                          VAR    BASINP    GEOM    SYMINP    ZMAT    AOBASIS   BASIS     P2S    ABASIS      S 
                                         1400     1410     1200     1210     1080     1600     1650     1700     1800   
                                           T        V       H0       H01     AOSYM     SMH    MOLCAS    OPER     GRID   

              2       5        2.98       700     1000      520     1800     2101   
                                         GEOM     BASIS   MCVARS    GRID      RKS  

 PROGRAMS   *        TOTAL   RKS-SCF       INT
 CPU TIMES  *        17.97     17.49      0.26
 REAL TIME  *        20.60 SEC
 DISK USED  *        33.76 MB (local),      135.03 MB (total)
 SF USED    *         0.08 MB
 GA USED    *         1.94 MB       (max)       1.94 MB       (current)
 **********************************************************************************************************************************
 SETTING EAB_PBE        =      -152.72229612  AU                              

 Dummy atoms: O2  H3  H4


 Recomputing one-electron integrals since nuclear charges changed


 PROGRAM * SEWARD (Integral evaluation for generally contracted gaussian basis sets)     Author: Roland Lindh, 1990

 Geometry written to block  1 of record 700


 Point group  C1  



 ATOMIC COORDINATES

 NR  ATOM    CHARGE       X              Y              Z

   1  O1      8.00   -1.326958228   -0.105938530    0.018788152
   2  H1      1.00   -1.931665240    1.600174317   -0.021710523
   3  H2      1.00    0.486644278    0.079598091    0.009862479
   4  O2      0.00    5.807930896    0.037846573   -0.002600944
   5  H3      0.00    6.519642601   -0.790571690    1.445164316
   6  H4      0.00    6.511408501   -0.862065527   -1.411207525

 Bond lengths in Bohr (Angstrom)

 1-2  1.810561173  1-3  1.823090112  4-5  1.813514438  4-6  1.813531094
     ( 0.958107712)     ( 0.964737741)     ( 0.959670512)     ( 0.959679326)

 Bond angles

  2-1-3  103.66482512   5-4-6  103.95523303

 NUCLEAR CHARGE:                   10
 NUMBER OF PRIMITIVE AOS:         118
 NUMBER OF SYMMETRY AOS:          114
 NUMBER OF CONTRACTIONS:           82   (   82A   )
 NUMBER OF CORE ORBITALS:           1   (    1A   )
 NUMBER OF VALENCE ORBITALS:        6   (    6A   )

 MOLECULE CHANGED: INITIALIZING OCCUPATION AND DUMP RECORDS


 NUCLEAR REPULSION ENERGY    9.15671413


 Eigenvalues of metric

         1 0.215E-02 0.245E-02 0.280E-02 0.293E-02 0.863E-02 0.105E-01 0.129E-01 0.162E-01


 OPERATOR DM      FOR CENTER  0  COORDINATES:    0.000000    0.000000    0.000000


 **********************************************************************************************************************************
 DATASETS  * FILE   NREC   LENGTH (MB)   RECORD NAMES
              1      19       30.29       500      610      700      900      950      970     1000      129      960     1100   
                                          VAR    BASINP    GEOM    SYMINP    ZMAT    AOBASIS   BASIS     P2S    ABASIS      S 
                                         1400     1410     1200     1210     1080     1600     1650     1700     1800   
                                           T        V       H0       H01     AOSYM     SMH    MOLCAS    OPER     GRID   

              2       5        2.98       700     1000      520     1800     2101   
                                         GEOM     BASIS   MCVARS    GRID      RKS  

 PROGRAMS   *        TOTAL       INT   RKS-SCF       INT
 CPU TIMES  *        18.00      0.03     17.49      0.26
 REAL TIME  *        20.72 SEC
 DISK USED  *        33.76 MB (local),      135.03 MB (total)
 SF USED    *         0.08 MB
 GA USED    *         1.94 MB       (max)       1.94 MB       (current)
 **********************************************************************************************************************************

 Density functional group PBE=PBEX+PBEC
 Functional: PBEX(Automatically generated (new) PBEX)                          Gradient terms: 1
 Functional: PBEC(Automatically generated (new) PBEC)                          Gradient terms: 1
 Use libxcgrid:  F
 Use grid at  1800.2

 Functional: PBEX                      Factor:  1.0000
 Functional: PBEC                      Factor:  1.0000

 Generated new metagrid on record  1800.2 with target accuracy 1.0D-08 and 58676 points in CPU time    0.2
 Computed new grid on record 1800.1 in CPU time    0.2
   69126 words reserved for DFT integration

 PROGRAM * RKS-SCF (Restricted closed shell Kohn-Sham)     Authors: W. Meyer, H.-J. Werner, P.J. Knowles, 1993

 NUMBER OF ELECTRONS:       5+    5-    SPACE SYMMETRY=1    SPIN SYMMETRY: Singlet 
 CONVERGENCE THRESHOLDS:    1.00E-04 (Density)    1.00E-08 (Energy)
 INTEGRAL THRESHOLDS:       1.00E-11 (Initial)    1.00E-11 (Final)
 MAX. NUMBER OF ITERATIONS:       60
 INTERPOLATION TYPE:            DIIS
 INTERPOLATION STEPS:              2 (START)      1 (STEP)
 LEVEL SHIFTS:                  0.00 (CLOSED)  0.00 (OPEN) 



 Use fine grid record 1800.2 for energy threshold  1.0D-08
 Orbital guess generated from atomic densities. Full valence occupancy:    7

 Molecular orbital dump at record        2201.2

 Initial occupancy:   5

 Direct Fock-matrix evaluation.        Authors: Roland Lindh & Martin Schuetz (1993/96)

 Integral Threshold:                  0.1D-10
 Threshold for writing integrals:     0.1D-06
 Prescreening on density matrix:        ON 
 Calculation will be performed fully direct        

 ITERATION   DDIFF            GRAD            ENERGY        2-EL.EN.            DIPOLE MOMENTS         DIIS   CPU(IT)  CPU(TOT)
    1      0.000D+00      0.000D+00       -76.28422021     97.668046    0.59071    0.92020   -0.02405    0      2.9      5.8     start
    2      0.000D+00      0.158D-01       -75.96707618     82.743072   -0.18014   -0.23765    0.00627    1      1.5      7.3     diag
    3      0.316D-01      0.356D-01       -76.35895639     93.306889    0.39203    0.61467   -0.01606    2      1.5      8.8     diag
    4      0.213D-01      0.673D-03       -76.35914563     93.040313    0.38389    0.60329   -0.01576    3      1.5     10.3     diag
    5      0.631D-03      0.175D-03       -76.35915373     93.071201    0.38226    0.60042   -0.01568    4      1.5     11.9     diag
    6      0.107D-03      0.460D-04       -76.35915439     93.082750    0.38319    0.60191   -0.01572    5      1.5     13.4     diag
    7      0.302D-04      0.163D-05       -76.35915439     93.083177    0.38320    0.60191   -0.01572    6      1.5     14.9     diag
    8      0.110D-05      0.120D-06       -76.35915439     93.083260    0.38320    0.60192   -0.01572    0      1.5     16.3     orth

 Final occupancy:   5

 !RKS STATE  1.1 Energy               -76.359154390158
 Nuclear energy                         9.15671413
 One-electron energy                 -122.82916032
 Two-electron energy                   46.54163015
 Density functional                    -9.22833835     PBEX=-8.90288554 PBEC=-0.32545281
 Virial quotient                       -1.00565311
 !RKS STATE  1.1 Dipole moment          0.38320075     0.60192190    -0.01572372
 Dipole moment /Debye                   0.97393535     1.52983266    -0.03996308

 Orbital energies:

         1.1          2.1          3.1          4.1          5.1          6.1          7.1
    -18.779689    -0.934416    -0.483534    -0.344844    -0.265587    -0.034961     0.016764


 HOMO      5.1    -0.265587 =      -7.2270eV
 LUMO      6.1    -0.034961 =      -0.9513eV
 LUMO-HOMO         0.230626 =       6.2757eV


 **********************************************************************************************************************************
 DATASETS  * FILE   NREC   LENGTH (MB)   RECORD NAMES
              1      19       30.29       500      610      700      900      950      970     1000      129      960     1100   
                                          VAR    BASINP    GEOM    SYMINP    ZMAT    AOBASIS   BASIS     P2S    ABASIS      S 
                                         1400     1410     1200     1210     1080     1600     1650     1700     1800   
                                           T        V       H0       H01     AOSYM     SMH    MOLCAS    OPER     GRID   

              2       6        5.74       700     1000      520     1800     2101     2201   
                                         GEOM     BASIS   MCVARS    GRID      RKS      RKS  

 PROGRAMS   *        TOTAL   RKS-SCF       INT   RKS-SCF       INT
 CPU TIMES  *        34.53     16.53      0.03     17.49      0.26
 REAL TIME  *        37.52 SEC
 DISK USED  *        36.49 MB (local),      145.97 MB (total)
 SF USED    *         0.08 MB
 GA USED    *         1.94 MB       (max)       1.94 MB       (current)
 **********************************************************************************************************************************
 SETTING EA_PBE         =       -76.35915439  AU                              

 Dummy atoms: O1  H1  H2


 Recomputing one-electron integrals since nuclear charges changed


 PROGRAM * SEWARD (Integral evaluation for generally contracted gaussian basis sets)     Author: Roland Lindh, 1990

 Geometry written to block  1 of record 700


 Point group  C1  



 ATOMIC COORDINATES

 NR  ATOM    CHARGE       X              Y              Z

   1  O1      0.00   -1.326958228   -0.105938530    0.018788152
   2  H1      0.00   -1.931665240    1.600174317   -0.021710523
   3  H2      0.00    0.486644278    0.079598091    0.009862479
   4  O2      8.00    5.807930896    0.037846573   -0.002600944
   5  H3      1.00    6.519642601   -0.790571690    1.445164316
   6  H4      1.00    6.511408501   -0.862065527   -1.411207525

 Bond lengths in Bohr (Angstrom)

 1-2  1.810561173  1-3  1.823090112  4-5  1.813514438  4-6  1.813531094
     ( 0.958107712)     ( 0.964737741)     ( 0.959670512)     ( 0.959679326)

 Bond angles

  2-1-3  103.66482512   5-4-6  103.95523303

 NUCLEAR CHARGE:                   10
 NUMBER OF PRIMITIVE AOS:         118
 NUMBER OF SYMMETRY AOS:          114
 NUMBER OF CONTRACTIONS:           82   (   82A   )
 NUMBER OF CORE ORBITALS:           1   (    1A   )
 NUMBER OF VALENCE ORBITALS:        6   (    6A   )

 MOLECULE CHANGED: INITIALIZING OCCUPATION AND DUMP RECORDS


 NUCLEAR REPULSION ENERGY    9.17259115


 Eigenvalues of metric

         1 0.215E-02 0.245E-02 0.280E-02 0.293E-02 0.863E-02 0.105E-01 0.129E-01 0.162E-01


 OPERATOR DM      FOR CENTER  0  COORDINATES:    0.000000    0.000000    0.000000


 **********************************************************************************************************************************
 DATASETS  * FILE   NREC   LENGTH (MB)   RECORD NAMES
              1      19       30.29       500      610      700      900      950      970     1000      129      960     1100   
                                          VAR    BASINP    GEOM    SYMINP    ZMAT    AOBASIS   BASIS     P2S    ABASIS      S 
                                         1400     1410     1200     1210     1080     1600     1650     1700     1800   
                                           T        V       H0       H01     AOSYM     SMH    MOLCAS    OPER     GRID   

              2       6        5.74       700     1000      520     1800     2101     2201   
                                         GEOM     BASIS   MCVARS    GRID      RKS      RKS  

 PROGRAMS   *        TOTAL       INT   RKS-SCF       INT   RKS-SCF       INT
 CPU TIMES  *        34.57      0.03     16.53      0.03     17.49      0.26
 REAL TIME  *        37.64 SEC
 DISK USED  *        36.49 MB (local),      145.97 MB (total)
 SF USED    *         0.08 MB
 GA USED    *         1.94 MB       (max)       1.94 MB       (current)
 **********************************************************************************************************************************

 Density functional group PBE=PBEX+PBEC
 Functional: PBEX(Automatically generated (new) PBEX)                          Gradient terms: 1
 Functional: PBEC(Automatically generated (new) PBEC)                          Gradient terms: 1
 Use libxcgrid:  F
 Use grid at  1800.2

 Functional: PBEX                      Factor:  1.0000
 Functional: PBEC                      Factor:  1.0000

 Generated new metagrid on record  1800.2 with target accuracy 1.0D-08 and 58676 points in CPU time    0.1
 Computed new grid on record 1800.1 in CPU time    0.1
   69126 words reserved for DFT integration

 PROGRAM * RKS-SCF (Restricted closed shell Kohn-Sham)     Authors: W. Meyer, H.-J. Werner, P.J. Knowles, 1993

 NUMBER OF ELECTRONS:       5+    5-    SPACE SYMMETRY=1    SPIN SYMMETRY: Singlet 
 CONVERGENCE THRESHOLDS:    1.00E-04 (Density)    1.00E-08 (Energy)
 INTEGRAL THRESHOLDS:       1.00E-11 (Initial)    1.00E-11 (Final)
 MAX. NUMBER OF ITERATIONS:       60
 INTERPOLATION TYPE:            DIIS
 INTERPOLATION STEPS:              2 (START)      1 (STEP)
 LEVEL SHIFTS:                  0.00 (CLOSED)  0.00 (OPEN) 



 Use fine grid record 1800.2 for energy threshold  1.0D-08
 Orbital guess generated from atomic densities. Full valence occupancy:    7

 Molecular orbital dump at record        2301.2

 Initial occupancy:   5

 Direct Fock-matrix evaluation.        Authors: Roland Lindh & Martin Schuetz (1993/96)

 Integral Threshold:                  0.1D-10
 Threshold for writing integrals:     0.1D-06
 Prescreening on density matrix:        ON 
 Calculation will be performed fully direct        

 ITERATION   DDIFF            GRAD            ENERGY        2-EL.EN.            DIPOLE MOMENTS         DIIS   CPU(IT)  CPU(TOT)
    1      0.000D+00      0.000D+00       -76.28401212     97.704743    0.68962   -0.84206    0.01907    0      2.8      5.7     start
    2      0.000D+00      0.159D-01       -75.96627130     82.747910   -0.18254    0.23584   -0.00536    1      1.5      7.2     diag
    3      0.320D-01      0.356D-01       -76.35892847     93.339163    0.46023   -0.56234    0.01274    2      1.5      8.7     diag
    4      0.218D-01      0.680D-03       -76.35912246     93.069249    0.45106   -0.55113    0.01249    3      1.5     10.2     diag
    5      0.647D-03      0.175D-03       -76.35913056     93.100473    0.44899   -0.54862    0.01243    4      1.5     11.7     diag
    6      0.109D-03      0.459D-04       -76.35913121     93.111914    0.45011   -0.54999    0.01246    5      1.5     13.2     diag
    7      0.300D-04      0.167D-05       -76.35913122     93.112356    0.45012   -0.54999    0.01246    6      1.5     14.7     diag
    8      0.116D-05      0.998D-07       -76.35913122     93.112438    0.45012   -0.55000    0.01246    0      1.5     16.2     orth

 Final occupancy:   5

 !RKS STATE  1.1 Energy               -76.359131215631
 Nuclear energy                         9.17259115
 One-electron energy                 -122.85793507
 Two-electron energy                   46.55621905
 Density functional                    -9.23000635     PBEX=-8.90448274 PBEC=-0.32552361
 Virial quotient                       -1.00557435
 !RKS STATE  1.1 Dipole moment          0.45012127    -0.54999713     0.01246317
 Dipole moment /Debye                   1.14401921    -1.39786171     0.03167614

 Orbital energies:

         1.1          2.1          3.1          4.1          5.1          6.1          7.1
    -18.779318    -0.934930    -0.484644    -0.344411    -0.265657    -0.034559     0.019281


 HOMO      5.1    -0.265657 =      -7.2289eV
 LUMO      6.1    -0.034559 =      -0.9404eV
 LUMO-HOMO         0.231098 =       6.2885eV


 **********************************************************************************************************************************
 DATASETS  * FILE   NREC   LENGTH (MB)   RECORD NAMES
              1      19       30.29       500      610      700      900      950      970     1000      129      960     1100   
                                          VAR    BASINP    GEOM    SYMINP    ZMAT    AOBASIS   BASIS     P2S    ABASIS      S 
                                         1400     1410     1200     1210     1080     1600     1650     1700     1800   
                                           T        V       H0       H01     AOSYM     SMH    MOLCAS    OPER     GRID   

              2       7        8.50       700     1000      520     1800     2101     2201     2301   
                                         GEOM     BASIS   MCVARS    GRID      RKS      RKS      RKS  

 PROGRAMS   *        TOTAL   RKS-SCF       INT   RKS-SCF       INT   RKS-SCF       INT
 CPU TIMES  *        50.93     16.35      0.03     16.53      0.03     17.49      0.26
 REAL TIME  *        54.16 SEC
 DISK USED  *        39.25 MB (local),      157.01 MB (total)
 SF USED    *         0.08 MB
 GA USED    *         1.94 MB       (max)       1.94 MB       (current)
 **********************************************************************************************************************************
 SETTING EB_PBE         =       -76.35913122  AU                              
 SETTING E_AB_INT       =        -0.00401051  AU                              

 *** results in hartree
 E_AB_INT         =        -0.00401051 AU
 Molecular orbitals read from record     2301.2  Type=RKS/CANONICAL (state 1.1)
 Occupation numbers read from record     2301.2  Type=RKS/RHF (state 1.1)
 Orbital energies read from record       2301.2  Type=RKS/CANONICAL (state 1.1)
 Redundancy group numbers read from rec  2301.2  Type=RKS/RHF (state 1.1)

 RPBE/aug-cc-pVDZ energy=    -76.359131215631

         RKS-SCF         RKS-SCF         RKS-SCF
    -76.35913122    -76.35915439   -152.72229612
 **********************************************************************************************************************************
 Molpro calculation terminated
