
 Primary working directories    : /scratch/sirous/43121/molpro.qiU7K4qs2x
 Secondary working directories  : /scratch/sirous/43121/molpro.qiU7K4qs2x
 Wavefunction directory         : /scratch/sirous/43121/
 Main file repository           : /scratch/sirous/43121/molpro.qiU7K4qs2x/

 id        : karlovklimes

 Nodes                      nprocs
 nc-09.cc.karlov.mff.cuni.cz    4

 Using customized tuning parameters: mindgm=1; mindgv=20; mindgc=4; mindgr=1; noblas=0; minvec=7
 default implementation of scratch files=sf  


 Variables initialized (934), CPU time= 0.01 sec
 ***,CH3C6H4CN+CF3CN+BF3
 memory,500,m
 gdirect
 gthresh,energy=1.d-8,twoint=1.d-19,oneint=1.d-19,zero=1.d-15,orbital=1.d-8,grid=1.d-8
 symmetry,nosym
 geomtyp=xyz
                                                                                 ! Geometry
 geometry={
 O1        -0.702196054    -0.056060256     0.009942262
 H1        -1.022193224    0.846775782     -0.011488714
 H2        0.257521062    0.042121496     0.005218999
 O2        3.475696617207258    0.01687126539176071     -0.002318554563628841
 H3        3.852318232207258    -0.4215088006082393     0.7638058274363712
 H4        3.8479609342072587    -0.4593417096082393     -0.7477210565636289
 }
 
 
 
 basis=avdz
 
 
 
                                                                                 ! Dimer Calculation
 {rks,pbe,accu=1.d-8;orbital,2101.2}
 eab_PBE=energy
 
 
                                                                                 !monomer A
 dummy,4,5,6;                                                                    ! NOW MONOMER B IS DUMMY
 {rks,pbe,accu=1.d-8;orbital,2201.2}
 ea_PBE=energy
                                                                                 !monomer B
 dummy,1,2,3;                                                                    !NOW MONOMER A IS DUMMY
 {rks,pbe,accu=1.d-8;orbital,2301.2}
 eb_PBE=energy
 
 E_AB_int=eab_PBE-ea_PBE-eb_PBE
 
 
 text,results in hartree
 show,E_AB_int
 
 Commands  initialized (763), CPU time= 0.01 sec, 617 directives.
 Default parameters read. Elapsed time= 0.21 sec

 Checking input...
 Passed
1


                                         ***  PROGRAM SYSTEM MOLPRO  ***
                                       Copyright, TTI GmbH Stuttgart, 2015
                                    Version 2019.2 linked Jun  8 2019 11:26:33


 **********************************************************************************************************************************
 LABEL *   CH3C6H4CN+CF3CN+BF3                                                           
  64 bit mpp version                                                                     DATE: 06-Oct-19          TIME: 17:53:49  
 **********************************************************************************************************************************

 SHA1:             8135a10abc80eafa5b3ae28ffc55be4890dc4c84
 **********************************************************************************************************************************

 THRESHOLDS:

 ZERO    =  1.00D-15  ONEINT  =  1.00D-19  TWOINT  =  1.00D-19  PREFAC  =  1.00D-14  XXXXXX  =  1.00D-09  EORDER  =  1.00D-04
 ENERGY  =  1.00D-08  ETEST   =  0.00D+00  EDENS   =  0.00D+00  THRDEDEF=  1.00D-06  GRADIENT=  1.00D-02  STEP    =  1.00D-03
 ORBITAL =  1.00D-08  CIVEC   =  1.00D-05  COEFF   =  1.00D-04  PRINTCI =  5.00D-02  PUNCHCI =  9.90D+01  OPTGRAD =  3.00D-04
 OPTENERG=  1.00D-06  OPTSTEP =  3.00D-04  THRGRAD =  1.00D-10  COMPRESS=  1.00D-11  VARMIN  =  1.00D-07  VARMAX  =  1.00D-03
 THRDOUB =  0.00D+00  THRDIV  =  1.00D-05  THRRED  =  1.00D-07  THRPSP  =  1.00D+00  THRDC   =  1.00D-10  THRCS   =  1.00D-10
 THRNRM  =  1.00D-08  THREQ   =  0.00D+00  THRDE   =  1.00D+00  THRREF  =  1.00D-05  SPARFAC =  1.00D+00  THRDLP  =  1.00D-07
 THRDIA  =  1.00D-10  THRDLS  =  1.00D-07  THRGPS  =  0.00D+00  THRKEX  =  0.00D+00  THRDIS  =  2.00D-01  THRVAR  =  1.00D-10
 THRLOC  =  1.00D-06  THRGAP  =  1.00D-06  THRLOCT = -1.00D+00  THRGAPT = -1.00D+00  THRORB  =  1.00D-06  THRMLTP =  0.00D+00
 THRCPQCI=  1.00D-10  KEXTA   =  0.00D+00  THRCOARS=  0.00D+00  SYMTOL  =  1.00D-06  GRADTOL =  1.00D-06  THROVL  =  1.00D-08
 THRORTH =  1.00D-08  GRID    =  1.00D-08  GRIDMAX =  1.00D-03  DTMAX   =  0.00D+00  THROCCDE=  1.00D-01  THROCCDE=  1.00D-01
 THRPRINT=  2.50D-01


 Variable memory set to  500000000 words,  buffer space 

 SETTING GEOMTYP        =    XYZ
 ZSYMEL=NOSYM

 SETTING BASIS          =    AVDZ


 Recomputing integrals since basis changed


 Using spherical harmonics

 Library entry O      S aug-cc-pVDZ          selected for orbital group  1
 Library entry O      P aug-cc-pVDZ          selected for orbital group  1
 Library entry O      D aug-cc-pVDZ          selected for orbital group  1
 Library entry H      S aug-cc-pVDZ          selected for orbital group  2
 Library entry H      P aug-cc-pVDZ          selected for orbital group  2


 PROGRAM * SEWARD (Integral evaluation for generally contracted gaussian basis sets)     Author: Roland Lindh, 1990

 Geometry written to block  1 of record 700


 Point group  C1  



 ATOMIC COORDINATES

 NR  ATOM    CHARGE       X              Y              Z

   1  O1      8.00   -1.326958228   -0.105938530    0.018788152
   2  H1      1.00   -1.931665240    1.600174317   -0.021710523
   3  H2      1.00    0.486644278    0.079598091    0.009862479
   4  O2      8.00    6.568114699    0.031882071   -0.004381433
   5  H3      1.00    7.279826404   -0.796536192    1.443383826
   6  H4      1.00    7.271592304   -0.868030029   -1.412988014

 Bond lengths in Bohr (Angstrom)

 1-2  1.810561173  1-3  1.823090112  4-5  1.813514438  4-6  1.813531094
     ( 0.958107712)     ( 0.964737741)     ( 0.959670512)     ( 0.959679326)

 Bond angles

  2-1-3  103.66482512   5-4-6  103.95523303

 NUCLEAR CHARGE:                   20
 NUMBER OF PRIMITIVE AOS:         118
 NUMBER OF SYMMETRY AOS:          114
 NUMBER OF CONTRACTIONS:           82   (   82A   )
 NUMBER OF CORE ORBITALS:           2   (    2A   )
 NUMBER OF VALENCE ORBITALS:       12   (   12A   )


 NUCLEAR REPULSION ENERGY   30.99729425


 Eigenvalues of metric

         1 0.220E-02 0.271E-02 0.287E-02 0.293E-02 0.941E-02 0.109E-01 0.135E-01 0.163E-01


 OPERATOR DM      FOR CENTER  0  COORDINATES:    0.000000    0.000000    0.000000


 **********************************************************************************************************************************
 DATASETS  * FILE   NREC   LENGTH (MB)   RECORD NAMES
              1      18       30.29       500      610      700      900      950      970     1000      129      960     1100   
                                          VAR    BASINP    GEOM    SYMINP    ZMAT    AOBASIS   BASIS     P2S    ABASIS      S 
                                         1400     1410     1200     1210     1080     1600     1650     1700   
                                           T        V       H0       H01     AOSYM     SMH    MOLCAS    OPER   

 PROGRAMS   *        TOTAL       INT
 CPU TIMES  *         0.41      0.24
 REAL TIME  *         2.99 SEC
 DISK USED  *        30.66 MB (local),      122.64 MB (total)
 GA USED    *         0.00 MB       (max)       0.00 MB       (current)
 **********************************************************************************************************************************

 Density functional group PBE=PBEX+PBEC
 Functional: PBEX(Automatically generated (new) PBEX)                          Gradient terms: 1
 Functional: PBEC(Automatically generated (new) PBEC)                          Gradient terms: 1
 Use libxcgrid:  F
 Use grid at  1800.2

 Functional: PBEX                      Factor:  1.0000
 Functional: PBEC                      Factor:  1.0000

 Generated new metagrid on record  1800.2 with target accuracy 1.0D-08 and 58676 points in CPU time    0.2
 Computed new grid on record 1800.1 in CPU time    0.2
   69126 words reserved for DFT integration

 PROGRAM * RKS-SCF (Restricted closed shell Kohn-Sham)     Authors: W. Meyer, H.-J. Werner, P.J. Knowles, 1993

 NUMBER OF ELECTRONS:      10+   10-    SPACE SYMMETRY=1    SPIN SYMMETRY: Singlet 
 CONVERGENCE THRESHOLDS:    1.00E-04 (Density)    1.00E-08 (Energy)
 INTEGRAL THRESHOLDS:       1.00E-11 (Initial)    1.00E-11 (Final)
 MAX. NUMBER OF ITERATIONS:       60
 INTERPOLATION TYPE:            DIIS
 INTERPOLATION STEPS:              2 (START)      1 (STEP)
 LEVEL SHIFTS:                  0.00 (CLOSED)  0.00 (OPEN) 



 Use fine grid record 1800.2 for energy threshold  1.0D-08
 Orbital guess generated from atomic densities. Full valence occupancy:   14

 Molecular orbital dump at record        2101.2

 Initial occupancy:  10

 Direct Fock-matrix evaluation.        Authors: Roland Lindh & Martin Schuetz (1993/96)

 Integral Threshold:                  0.1D-10
 Threshold for writing integrals:     0.1D-06
 Prescreening on density matrix:        ON 
 Calculation will be performed fully direct        

 ITERATION   DDIFF            GRAD            ENERGY        2-EL.EN.            DIPOLE MOMENTS         DIIS   CPU(IT)  CPU(TOT)
    1      0.000D+00      0.000D+00      -152.57356211    220.683145    1.28928    0.07762   -0.00498    0      2.3      4.3     start
    2      0.000D+00      0.163D-01      -151.96708410    191.138492   -0.05573   -0.02012    0.00060    1      1.3      5.5     diag
    3      0.445D-01      0.361D-01      -152.72054221    211.993399    0.91520    0.04907   -0.00339    2      1.3      6.8     diag
    4      0.301D-01      0.701D-03      -152.72091399    211.467515    0.90523    0.04520   -0.00327    3      1.2      8.1     diag
    5      0.902D-03      0.179D-03      -152.72092866    211.520680    0.90079    0.04834   -0.00334    4      1.2      9.3     diag
    6      0.164D-03      0.664D-04      -152.72093014    211.537702    0.90184    0.04544   -0.00327    5      1.2     10.5     diag
    7      0.835D-04      0.421D-04      -152.72093109    211.544501    0.90241    0.04679   -0.00331    6      1.2     11.8     diag
    8      0.372D-04      0.899D-06      -152.72093109    211.544944    0.90242    0.04679   -0.00331    7      1.2     13.0     diag
    9      0.868D-06      0.618D-07      -152.72093109    211.545019    0.90242    0.04679   -0.00331    0      1.2     14.2     orth

 Final occupancy:  10

 !RKS STATE  1.1 Energy              -152.720931093033
 Nuclear energy                        30.99729425
 One-electron energy                 -271.03197130
 Two-electron energy                  105.77250953
 Density functional                   -18.45876357     PBEX=-17.80769548 PBEC= -0.65106810
 Virial quotient                       -1.00567000
 !RKS STATE  1.1 Dipole moment          0.90242294     0.04679208    -0.00330526
 Dipole moment /Debye                   2.29358011     0.11892582    -0.00840057

 Orbital energies:

         1.1          2.1          3.1          4.1          5.1          6.1          7.1          8.1          9.1         10.1
    -18.789301   -18.769141    -0.944591    -0.923794    -0.494026    -0.472720    -0.355163    -0.334655    -0.275977    -0.255702

        11.1         12.1
     -0.044562    -0.016909


 HOMO     10.1    -0.255702 =      -6.9580eV
 LUMO     11.1    -0.044562 =      -1.2126eV
 LUMO-HOMO         0.211140 =       5.7454eV


 **********************************************************************************************************************************
 DATASETS  * FILE   NREC   LENGTH (MB)   RECORD NAMES
              1      19       30.29       500      610      700      900      950      970     1000      129      960     1100   
                                          VAR    BASINP    GEOM    SYMINP    ZMAT    AOBASIS   BASIS     P2S    ABASIS      S 
                                         1400     1410     1200     1210     1080     1600     1650     1700     1800   
                                           T        V       H0       H01     AOSYM     SMH    MOLCAS    OPER     GRID   

              2       5        2.98       700     1000      520     1800     2101   
                                         GEOM     BASIS   MCVARS    GRID      RKS  

 PROGRAMS   *        TOTAL   RKS-SCF       INT
 CPU TIMES  *        14.88     14.47      0.24
 REAL TIME  *        18.62 SEC
 DISK USED  *        33.76 MB (local),      135.03 MB (total)
 SF USED    *         0.08 MB
 GA USED    *         1.94 MB       (max)       1.94 MB       (current)
 **********************************************************************************************************************************
 SETTING EAB_PBE        =      -152.72093109  AU                              

 Dummy atoms: O2  H3  H4


 Recomputing one-electron integrals since nuclear charges changed


 PROGRAM * SEWARD (Integral evaluation for generally contracted gaussian basis sets)     Author: Roland Lindh, 1990

 Geometry written to block  1 of record 700


 Point group  C1  



 ATOMIC COORDINATES

 NR  ATOM    CHARGE       X              Y              Z

   1  O1      8.00   -1.326958228   -0.105938530    0.018788152
   2  H1      1.00   -1.931665240    1.600174317   -0.021710523
   3  H2      1.00    0.486644278    0.079598091    0.009862479
   4  O2      0.00    6.568114699    0.031882071   -0.004381433
   5  H3      0.00    7.279826404   -0.796536192    1.443383826
   6  H4      0.00    7.271592304   -0.868030029   -1.412988014

 Bond lengths in Bohr (Angstrom)

 1-2  1.810561173  1-3  1.823090112  4-5  1.813514438  4-6  1.813531094
     ( 0.958107712)     ( 0.964737741)     ( 0.959670512)     ( 0.959679326)

 Bond angles

  2-1-3  103.66482512   5-4-6  103.95523303

 NUCLEAR CHARGE:                   10
 NUMBER OF PRIMITIVE AOS:         118
 NUMBER OF SYMMETRY AOS:          114
 NUMBER OF CONTRACTIONS:           82   (   82A   )
 NUMBER OF CORE ORBITALS:           1   (    1A   )
 NUMBER OF VALENCE ORBITALS:        6   (    6A   )

 MOLECULE CHANGED: INITIALIZING OCCUPATION AND DUMP RECORDS


 NUCLEAR REPULSION ENERGY    9.15671413


 Eigenvalues of metric

         1 0.220E-02 0.271E-02 0.287E-02 0.293E-02 0.941E-02 0.109E-01 0.135E-01 0.163E-01


 OPERATOR DM      FOR CENTER  0  COORDINATES:    0.000000    0.000000    0.000000


 **********************************************************************************************************************************
 DATASETS  * FILE   NREC   LENGTH (MB)   RECORD NAMES
              1      19       30.29       500      610      700      900      950      970     1000      129      960     1100   
                                          VAR    BASINP    GEOM    SYMINP    ZMAT    AOBASIS   BASIS     P2S    ABASIS      S 
                                         1400     1410     1200     1210     1080     1600     1650     1700     1800   
                                           T        V       H0       H01     AOSYM     SMH    MOLCAS    OPER     GRID   

              2       5        2.98       700     1000      520     1800     2101   
                                         GEOM     BASIS   MCVARS    GRID      RKS  

 PROGRAMS   *        TOTAL       INT   RKS-SCF       INT
 CPU TIMES  *        14.91      0.02     14.47      0.24
 REAL TIME  *        18.73 SEC
 DISK USED  *        33.76 MB (local),      135.03 MB (total)
 SF USED    *         0.08 MB
 GA USED    *         1.94 MB       (max)       1.94 MB       (current)
 **********************************************************************************************************************************

 Density functional group PBE=PBEX+PBEC
 Functional: PBEX(Automatically generated (new) PBEX)                          Gradient terms: 1
 Functional: PBEC(Automatically generated (new) PBEC)                          Gradient terms: 1
 Use libxcgrid:  F
 Use grid at  1800.2

 Functional: PBEX                      Factor:  1.0000
 Functional: PBEC                      Factor:  1.0000

 Generated new metagrid on record  1800.2 with target accuracy 1.0D-08 and 58676 points in CPU time    0.2
 Computed new grid on record 1800.1 in CPU time    0.2
   69126 words reserved for DFT integration

 PROGRAM * RKS-SCF (Restricted closed shell Kohn-Sham)     Authors: W. Meyer, H.-J. Werner, P.J. Knowles, 1993

 NUMBER OF ELECTRONS:       5+    5-    SPACE SYMMETRY=1    SPIN SYMMETRY: Singlet 
 CONVERGENCE THRESHOLDS:    1.00E-04 (Density)    1.00E-08 (Energy)
 INTEGRAL THRESHOLDS:       1.00E-11 (Initial)    1.00E-11 (Final)
 MAX. NUMBER OF ITERATIONS:       60
 INTERPOLATION TYPE:            DIIS
 INTERPOLATION STEPS:              2 (START)      1 (STEP)
 LEVEL SHIFTS:                  0.00 (CLOSED)  0.00 (OPEN) 



 Use fine grid record 1800.2 for energy threshold  1.0D-08
 Orbital guess generated from atomic densities. Full valence occupancy:    7

 Molecular orbital dump at record        2201.2

 Initial occupancy:   5

 Direct Fock-matrix evaluation.        Authors: Roland Lindh & Martin Schuetz (1993/96)

 Integral Threshold:                  0.1D-10
 Threshold for writing integrals:     0.1D-06
 Prescreening on density matrix:        ON 
 Calculation will be performed fully direct        

 ITERATION   DDIFF            GRAD            ENERGY        2-EL.EN.            DIPOLE MOMENTS         DIIS   CPU(IT)  CPU(TOT)
    1      0.000D+00      0.000D+00       -76.28421492     97.667426    0.59070    0.92017   -0.02405    0      2.3      4.6     start
    2      0.000D+00      0.158D-01       -75.96755544     82.751564   -0.17595   -0.23636    0.00624    1      1.2      5.8     diag
    3      0.316D-01      0.356D-01       -76.35893839     93.306119    0.39184    0.61453   -0.01605    2      1.2      7.1     diag
    4      0.213D-01      0.671D-03       -76.35912665     93.040315    0.38384    0.60318   -0.01576    3      1.2      8.3     diag
    5      0.630D-03      0.175D-03       -76.35913471     93.071063    0.38218    0.60034   -0.01568    4      1.2      9.6     diag
    6      0.107D-03      0.459D-04       -76.35913537     93.082596    0.38312    0.60182   -0.01572    5      1.2     10.8     diag
    7      0.301D-04      0.161D-05       -76.35913537     93.083019    0.38312    0.60182   -0.01572    6      1.2     12.0     diag
    8      0.109D-05      0.105D-06       -76.35913537     93.083101    0.38313    0.60183   -0.01572    0      1.2     13.2     orth

 Final occupancy:   5

 !RKS STATE  1.1 Energy               -76.359135368060
 Nuclear energy                         9.15671413
 One-electron energy                 -122.82906379
 Two-electron energy                   46.54155039
 Density functional                    -9.22833611     PBEX=-8.90288168 PBEC=-0.32545443
 Virial quotient                       -1.00565305
 !RKS STATE  1.1 Dipole moment          0.38312638     0.60182551    -0.01572069
 Dipole moment /Debye                   0.97374636     1.52958767    -0.03995539

 Orbital energies:

         1.1          2.1          3.1          4.1          5.1          6.1          7.1
    -18.779697    -0.934421    -0.483537    -0.344850    -0.265594    -0.034940     0.016585


 HOMO      5.1    -0.265594 =      -7.2272eV
 LUMO      6.1    -0.034940 =      -0.9508eV
 LUMO-HOMO         0.230654 =       6.2764eV


 **********************************************************************************************************************************
 DATASETS  * FILE   NREC   LENGTH (MB)   RECORD NAMES
              1      19       30.29       500      610      700      900      950      970     1000      129      960     1100   
                                          VAR    BASINP    GEOM    SYMINP    ZMAT    AOBASIS   BASIS     P2S    ABASIS      S 
                                         1400     1410     1200     1210     1080     1600     1650     1700     1800   
                                           T        V       H0       H01     AOSYM     SMH    MOLCAS    OPER     GRID   

              2       6        5.74       700     1000      520     1800     2101     2201   
                                         GEOM     BASIS   MCVARS    GRID      RKS      RKS  

 PROGRAMS   *        TOTAL   RKS-SCF       INT   RKS-SCF       INT
 CPU TIMES  *        28.38     13.46      0.02     14.47      0.24
 REAL TIME  *        32.44 SEC
 DISK USED  *        36.49 MB (local),      145.97 MB (total)
 SF USED    *         0.08 MB
 GA USED    *         1.94 MB       (max)       1.94 MB       (current)
 **********************************************************************************************************************************
 SETTING EA_PBE         =       -76.35913537  AU                              

 Dummy atoms: O1  H1  H2


 Recomputing one-electron integrals since nuclear charges changed


 PROGRAM * SEWARD (Integral evaluation for generally contracted gaussian basis sets)     Author: Roland Lindh, 1990

 Geometry written to block  1 of record 700


 Point group  C1  



 ATOMIC COORDINATES

 NR  ATOM    CHARGE       X              Y              Z

   1  O1      0.00   -1.326958228   -0.105938530    0.018788152
   2  H1      0.00   -1.931665240    1.600174317   -0.021710523
   3  H2      0.00    0.486644278    0.079598091    0.009862479
   4  O2      8.00    6.568114699    0.031882071   -0.004381433
   5  H3      1.00    7.279826404   -0.796536192    1.443383826
   6  H4      1.00    7.271592304   -0.868030029   -1.412988014

 Bond lengths in Bohr (Angstrom)

 1-2  1.810561173  1-3  1.823090112  4-5  1.813514438  4-6  1.813531094
     ( 0.958107712)     ( 0.964737741)     ( 0.959670512)     ( 0.959679326)

 Bond angles

  2-1-3  103.66482512   5-4-6  103.95523303

 NUCLEAR CHARGE:                   10
 NUMBER OF PRIMITIVE AOS:         118
 NUMBER OF SYMMETRY AOS:          114
 NUMBER OF CONTRACTIONS:           82   (   82A   )
 NUMBER OF CORE ORBITALS:           1   (    1A   )
 NUMBER OF VALENCE ORBITALS:        6   (    6A   )

 MOLECULE CHANGED: INITIALIZING OCCUPATION AND DUMP RECORDS


 NUCLEAR REPULSION ENERGY    9.17259115


 Eigenvalues of metric

         1 0.220E-02 0.271E-02 0.287E-02 0.293E-02 0.941E-02 0.109E-01 0.135E-01 0.163E-01


 OPERATOR DM      FOR CENTER  0  COORDINATES:    0.000000    0.000000    0.000000


 **********************************************************************************************************************************
 DATASETS  * FILE   NREC   LENGTH (MB)   RECORD NAMES
              1      19       30.29       500      610      700      900      950      970     1000      129      960     1100   
                                          VAR    BASINP    GEOM    SYMINP    ZMAT    AOBASIS   BASIS     P2S    ABASIS      S 
                                         1400     1410     1200     1210     1080     1600     1650     1700     1800   
                                           T        V       H0       H01     AOSYM     SMH    MOLCAS    OPER     GRID   

              2       6        5.74       700     1000      520     1800     2101     2201   
                                         GEOM     BASIS   MCVARS    GRID      RKS      RKS  

 PROGRAMS   *        TOTAL       INT   RKS-SCF       INT   RKS-SCF       INT
 CPU TIMES  *        28.41      0.03     13.46      0.02     14.47      0.24
 REAL TIME  *        32.55 SEC
 DISK USED  *        36.49 MB (local),      145.97 MB (total)
 SF USED    *         0.08 MB
 GA USED    *         1.94 MB       (max)       1.94 MB       (current)
 **********************************************************************************************************************************

 Density functional group PBE=PBEX+PBEC
 Functional: PBEX(Automatically generated (new) PBEX)                          Gradient terms: 1
 Functional: PBEC(Automatically generated (new) PBEC)                          Gradient terms: 1
 Use libxcgrid:  F
 Use grid at  1800.2

 Functional: PBEX                      Factor:  1.0000
 Functional: PBEC                      Factor:  1.0000

 Generated new metagrid on record  1800.2 with target accuracy 1.0D-08 and 58676 points in CPU time    0.2
 Computed new grid on record 1800.1 in CPU time    0.2
   69126 words reserved for DFT integration

 PROGRAM * RKS-SCF (Restricted closed shell Kohn-Sham)     Authors: W. Meyer, H.-J. Werner, P.J. Knowles, 1993

 NUMBER OF ELECTRONS:       5+    5-    SPACE SYMMETRY=1    SPIN SYMMETRY: Singlet 
 CONVERGENCE THRESHOLDS:    1.00E-04 (Density)    1.00E-08 (Energy)
 INTEGRAL THRESHOLDS:       1.00E-11 (Initial)    1.00E-11 (Final)
 MAX. NUMBER OF ITERATIONS:       60
 INTERPOLATION TYPE:            DIIS
 INTERPOLATION STEPS:              2 (START)      1 (STEP)
 LEVEL SHIFTS:                  0.00 (CLOSED)  0.00 (OPEN) 



 Use fine grid record 1800.2 for energy threshold  1.0D-08
 Orbital guess generated from atomic densities. Full valence occupancy:    7

 Molecular orbital dump at record        2301.2

 Initial occupancy:   5

 Direct Fock-matrix evaluation.        Authors: Roland Lindh & Martin Schuetz (1993/96)

 Integral Threshold:                  0.1D-10
 Threshold for writing integrals:     0.1D-06
 Prescreening on density matrix:        ON 
 Calculation will be performed fully direct        

 ITERATION   DDIFF            GRAD            ENERGY        2-EL.EN.            DIPOLE MOMENTS         DIIS   CPU(IT)  CPU(TOT)
    1      0.000D+00      0.000D+00       -76.28399918     97.703758    0.68998   -0.84258    0.01909    0      2.3      4.6     start
    2      0.000D+00      0.159D-01       -75.96712385     82.763135   -0.17835    0.22899   -0.00520    1      1.2      5.8     diag
    3      0.319D-01      0.356D-01       -76.35889452     93.338156    0.46021   -0.56276    0.01275    2      1.2      7.1     diag
    4      0.217D-01      0.678D-03       -76.35908691     93.069515    0.45119   -0.55179    0.01251    3      1.2      8.3     diag
    5      0.645D-03      0.175D-03       -76.35909497     93.100472    0.44913   -0.54926    0.01245    4      1.2      9.5     diag
    6      0.109D-03      0.458D-04       -76.35909562     93.111919    0.45024   -0.55061    0.01248    5      1.2     10.7     diag
    7      0.300D-04      0.165D-05       -76.35909562     93.112352    0.45024   -0.55062    0.01248    6      1.2     12.0     diag
    8      0.114D-05      0.977D-07       -76.35909562     93.112433    0.45024   -0.55063    0.01248    0      1.2     13.2     orth

 Final occupancy:   5

 !RKS STATE  1.1 Energy               -76.359095619340
 Nuclear energy                         9.17259115
 One-electron energy                 -122.85791123
 Two-electron energy                   46.55621633
 Density functional                    -9.22999188     PBEX=-8.90446465 PBEC=-0.32552723
 Virial quotient                       -1.00557463
 !RKS STATE  1.1 Dipole moment          0.45024489    -0.55062506     0.01247882
 Dipole moment /Debye                   1.14433341    -1.39945765     0.03171592

 Orbital energies:

         1.1          2.1          3.1          4.1          5.1          6.1          7.1
    -18.779315    -0.934920    -0.484646    -0.344400    -0.265661    -0.034510     0.019282


 HOMO      5.1    -0.265661 =      -7.2290eV
 LUMO      6.1    -0.034510 =      -0.9391eV
 LUMO-HOMO         0.231151 =       6.2899eV


 **********************************************************************************************************************************
 DATASETS  * FILE   NREC   LENGTH (MB)   RECORD NAMES
              1      19       30.29       500      610      700      900      950      970     1000      129      960     1100   
                                          VAR    BASINP    GEOM    SYMINP    ZMAT    AOBASIS   BASIS     P2S    ABASIS      S 
                                         1400     1410     1200     1210     1080     1600     1650     1700     1800   
                                           T        V       H0       H01     AOSYM     SMH    MOLCAS    OPER     GRID   

              2       7        8.50       700     1000      520     1800     2101     2201     2301   
                                         GEOM     BASIS   MCVARS    GRID      RKS      RKS      RKS  

 PROGRAMS   *        TOTAL   RKS-SCF       INT   RKS-SCF       INT   RKS-SCF       INT
 CPU TIMES  *        41.82     13.41      0.03     13.46      0.02     14.47      0.24
 REAL TIME  *        46.31 SEC
 DISK USED  *        39.25 MB (local),      157.01 MB (total)
 SF USED    *         0.08 MB
 GA USED    *         1.94 MB       (max)       1.94 MB       (current)
 **********************************************************************************************************************************
 SETTING EB_PBE         =       -76.35909562  AU                              
 SETTING E_AB_INT       =        -0.00270011  AU                              

 *** results in hartree
 E_AB_INT         =        -0.00270011 AU
 Molecular orbitals read from record     2301.2  Type=RKS/CANONICAL (state 1.1)
 Occupation numbers read from record     2301.2  Type=RKS/RHF (state 1.1)
 Orbital energies read from record       2301.2  Type=RKS/CANONICAL (state 1.1)
 Redundancy group numbers read from rec  2301.2  Type=RKS/RHF (state 1.1)

 RPBE/aug-cc-pVDZ energy=    -76.359095619340

         RKS-SCF         RKS-SCF         RKS-SCF
    -76.35909562    -76.35913537   -152.72093109
 **********************************************************************************************************************************
 Molpro calculation terminated
