
     Program PWSCF v.7.2 starts on 12Oct2023 at 15:19:14 

     This program is part of the open-source Quantum ESPRESSO suite
     for quantum simulation of materials; please cite
         "P. Giannozzi et al., J. Phys.:Condens. Matter 21 395502 (2009);
         "P. Giannozzi et al., J. Phys.:Condens. Matter 29 465901 (2017);
         "P. Giannozzi et al., J. Chem. Phys. 152 154105 (2020);
          URL http://www.quantum-espresso.org", 
     in publications or presentations arising from this work. More details at
     http://www.quantum-espresso.org/quote

     Parallel version (MPI), running on    32 processors

     MPI processes distributed on     1 nodes
     485832 MiB available memory on the printing compute node when the environment starts

     Reading input from H2O_CO_dimer_O_H_contact_32_efficiency_dimer.in
Warning: card &CELL ignored
Warning: card / ignored

     Current dimensions of program PWSCF are:
     Max number of different atomic species (ntypx) = 10
     Max number of k-points (npk) =  40000
     Max angular momentum in pseudopotentials (lmaxx) =  4
     file H.pbe-kjpaw_psl.1.0.0.UPF: wavefunction(s)  1S renormalized
     file C.pbe-n-kjpaw_psl.1.0.0.UPF: wavefunction(s)  2S 2P renormalized
     file O.pbe-nl-kjpaw_psl.1.0.0.UPF: wavefunction(s)  2S 2P renormalized

     IMPORTANT: XC functional enforced from input :
     Exchange-correlation= PBE
                           (   1   4   3   4   0   0   0)
     Any further DFT definition will be discarded
     Please, verify this is what you really want


     gamma-point specific algorithms are used

     R & G space division:  proc/nbgrp/npool/nimage =      32
     Subspace diagonalization in iterative solution of the eigenvalue problem:
     a serial algorithm will be used


     Parallelization info
     --------------------
     sticks:   dense  smooth     PW     G-vecs:    dense   smooth      PW
     Min        6395    6395   1598              2177048  2177048  272114
     Max        6398    6398   1600              2177062  2177062  272124
     Sum      204693  204693  51189             69665707 69665707 8707803

     Using Slab Decomposition



     bravais-lattice index     =            0
     lattice parameter (alat)  =      66.1404  a.u.
     unit-cell volume          =  289334.8415 (a.u.)^3
     number of atoms/cell      =            5
     number of atomic types    =            3
     number of electrons       =        18.00
     number of Kohn-Sham states=            9
     kinetic-energy cutoff     =     147.0000  Ry
     charge density cutoff     =     588.0000  Ry
     scf convergence threshold =      1.0E-08
     mixing beta               =       0.7000
     number of iterations used =            8  plain     mixing
     Exchange-correlation= PBE
                           (   1   4   3   4   0   0   0)

     celldm(1)=  66.140414  celldm(2)=   0.000000  celldm(3)=   0.000000
     celldm(4)=   0.000000  celldm(5)=   0.000000  celldm(6)=   0.000000

     crystal axes: (cart. coord. in units of alat)
               a(1) = (   1.000000   0.000000   0.000000 )  
               a(2) = (   0.000000   1.000000   0.000000 )  
               a(3) = (   0.000000   0.000000   1.000000 )  

     reciprocal axes: (cart. coord. in units 2 pi/alat)
               b(1) = (  1.000000  0.000000  0.000000 )  
               b(2) = (  0.000000  1.000000  0.000000 )  
               b(3) = (  0.000000  0.000000  1.000000 )  


     PseudoPot. # 1 for H  read from file:
     /home/users/klimj2am/src/pslibrary.1.0.0/pbe/PSEUDOPOTENTIALS/H.pbe-kjpaw_psl.1.0.0.UPF
     MD5 check sum: 220281c0717fd894cece6904c624ceaa
     Pseudo is Projector augmented-wave, Zval =  1.0
     Generated using 'atomic' code by A. Dal Corso  v.7.2
     Shape of augmentation charge: PSQ
     Using radial grid of  929 points,  2 beta functions with: 
                l(1) =   0
                l(2) =   0
     Q(r) pseudized with 0 coefficients 


     PseudoPot. # 2 for C  read from file:
     /home/users/klimj2am/src/pslibrary.1.0.0/pbe/PSEUDOPOTENTIALS/C.pbe-n-kjpaw_psl.1.0.0.UPF
     MD5 check sum: 9d4797b4e2669f30c50dcc814f8da1dd
     Pseudo is Projector augmented-wave + core cor, Zval =  4.0
     Generated using 'atomic' code by A. Dal Corso  v.7.2
     Shape of augmentation charge: PSQ
     Using radial grid of 1073 points,  4 beta functions with: 
                l(1) =   0
                l(2) =   0
                l(3) =   1
                l(4) =   1
     Q(r) pseudized with 0 coefficients 


     PseudoPot. # 3 for O  read from file:
     /home/users/klimj2am/src/pslibrary.1.0.0/pbe/PSEUDOPOTENTIALS/O.pbe-nl-kjpaw_psl.1.0.0.UPF
     MD5 check sum: 3be12c084656f77eefcab7bec6207024
     Pseudo is Projector augmented-wave + core cor, Zval =  6.0
     Generated using 'atomic' code by A. Dal Corso  v.7.2
     Shape of augmentation charge: PSQ
     Using radial grid of 1095 points,  4 beta functions with: 
                l(1) =   0
                l(2) =   0
                l(3) =   1
                l(4) =   1
     Q(r) pseudized with 0 coefficients 


     atomic species   valence    mass     pseudopotential
        H              1.00     1.00800     H ( 1.00)
        C              4.00    12.01100     C ( 1.00)
        O              6.00    15.99900     O ( 1.00)

     No symmetry found



   Cartesian axes

     site n.     atom                  positions (alat units)
         1           H   tau(   1) = (   0.0007854   0.0497453  -0.0266148  )
         2           H   tau(   2) = (   0.0003404   0.0839572  -0.0000425  )
         3           C   tau(   3) = (   0.0008454   0.2079210  -0.0000954  )
         4           O   tau(   4) = (   0.0000000   0.0564916   0.0000000  )
         5           O   tau(   5) = (   0.0002289   0.1753855  -0.0000309  )

     number of k points=     1
                       cart. coord. in units 2pi/alat
        k(    1) = (   0.0000000   0.0000000   0.0000000), wk =   2.0000000

     Dense  grid: 34832854 G-vectors     FFT dimensions: ( 512, 512, 512)

     Estimated max dynamical RAM per process >       1.59 GB

     Estimated total dynamical RAM >      51.03 GB

     Initial potential from superposition of free atoms

     starting charge      17.9999, renormalised to      18.0000

     negative rho (up, down):  9.492E-04 0.000E+00
     Starting wfcs are   14 randomized atomic wfcs
     Checking if some PAW data can be deallocated... 

     total cpu time spent up to now is       33.7 secs

     Self-consistent Calculation

     iteration #  1     ecut=   147.00 Ry     beta= 0.70
     Davidson diagonalization with overlap
     ethr =  1.00E-02,  avg # of iterations =  2.0

     negative rho (up, down):  1.022E-03 0.000E+00

     total cpu time spent up to now is       47.6 secs

     total energy              =    -103.74142184 Ry
     estimated scf accuracy    <       0.71162959 Ry

     iteration #  2     ecut=   147.00 Ry     beta= 0.70
     Davidson diagonalization with overlap
     ethr =  3.95E-03,  avg # of iterations =  5.0

     negative rho (up, down):  8.875E-04 0.000E+00

     total cpu time spent up to now is       62.6 secs

     total energy              =    -103.83468447 Ry
     estimated scf accuracy    <       1.04922386 Ry

     iteration #  3     ecut=   147.00 Ry     beta= 0.70
     Davidson diagonalization with overlap
     ethr =  3.95E-03,  avg # of iterations =  4.0

     negative rho (up, down):  8.802E-04 0.000E+00

     total cpu time spent up to now is       76.4 secs

     total energy              =    -104.01656442 Ry
     estimated scf accuracy    <       0.09225844 Ry

     iteration #  4     ecut=   147.00 Ry     beta= 0.70
     Davidson diagonalization with overlap
     ethr =  5.13E-04,  avg # of iterations =  3.0

     negative rho (up, down):  8.897E-04 0.000E+00

     total cpu time spent up to now is       90.4 secs

     total energy              =    -104.04810594 Ry
     estimated scf accuracy    <       0.01043792 Ry

     iteration #  5     ecut=   147.00 Ry     beta= 0.70
     Davidson diagonalization with overlap
     ethr =  5.80E-05,  avg # of iterations =  3.0

     negative rho (up, down):  8.985E-04 0.000E+00

     total cpu time spent up to now is      103.8 secs

     total energy              =    -104.04974303 Ry
     estimated scf accuracy    <       0.00235341 Ry

     iteration #  6     ecut=   147.00 Ry     beta= 0.70
     Davidson diagonalization with overlap
     ethr =  1.31E-05,  avg # of iterations =  2.0

     negative rho (up, down):  9.004E-04 0.000E+00

     total cpu time spent up to now is      116.6 secs

     total energy              =    -104.04991744 Ry
     estimated scf accuracy    <       0.00042065 Ry

     iteration #  7     ecut=   147.00 Ry     beta= 0.70
     Davidson diagonalization with overlap
     ethr =  2.34E-06,  avg # of iterations =  3.0

     negative rho (up, down):  9.024E-04 0.000E+00

     total cpu time spent up to now is      130.1 secs

     total energy              =    -104.05001732 Ry
     estimated scf accuracy    <       0.00005039 Ry

     iteration #  8     ecut=   147.00 Ry     beta= 0.70
     Davidson diagonalization with overlap
     ethr =  2.80E-07,  avg # of iterations =  3.0

     negative rho (up, down):  9.025E-04 0.000E+00

     total cpu time spent up to now is      144.4 secs

     total energy              =    -104.05003572 Ry
     estimated scf accuracy    <       0.00000468 Ry

     iteration #  9     ecut=   147.00 Ry     beta= 0.70
     Davidson diagonalization with overlap
     ethr =  2.60E-08,  avg # of iterations =  4.0

     negative rho (up, down):  9.023E-04 0.000E+00

     total cpu time spent up to now is      158.4 secs

     total energy              =    -104.05003526 Ry
     estimated scf accuracy    <       0.00000693 Ry

     iteration # 10     ecut=   147.00 Ry     beta= 0.70
     Davidson diagonalization with overlap
     ethr =  2.60E-08,  avg # of iterations =  4.0

     negative rho (up, down):  9.023E-04 0.000E+00

     total cpu time spent up to now is      172.7 secs

     total energy              =    -104.05003683 Ry
     estimated scf accuracy    <       0.00000018 Ry

     iteration # 11     ecut=   147.00 Ry     beta= 0.70
     Davidson diagonalization with overlap
     ethr =  1.00E-09,  avg # of iterations =  2.0

     negative rho (up, down):  9.023E-04 0.000E+00

     total cpu time spent up to now is      186.4 secs

     total energy              =    -104.05003681 Ry
     estimated scf accuracy    <       0.00000014 Ry

     iteration # 12     ecut=   147.00 Ry     beta= 0.70
     Davidson diagonalization with overlap
     ethr =  7.83E-10,  avg # of iterations =  4.0

     negative rho (up, down):  9.023E-04 0.000E+00

     total cpu time spent up to now is      199.0 secs

     End of self-consistent calculation

          k = 0.0000 0.0000 0.0000 (****** PWs)   bands (ev):

   -29.5459 -25.3652 -14.3531 -13.1058 -12.0179 -12.0168  -9.2828  -9.2416
    -7.2000

     highest occupied level (ev):    -7.2000

!    total energy              =    -104.05003683 Ry
     total all-electron energy =      -379.507915 Ry
     estimated scf accuracy    <          9.6E-10 Ry

     The total energy is the sum of the following terms:
     one-electron contribution =    -205.02635273 Ry
     hartree contribution      =     105.44449323 Ry
     xc contribution           =     -20.56227176 Ry
     ewald contribution        =      41.47836865 Ry
     one-center paw contrib.   =     -25.38427421 Ry

     charge density inside the Wigner-Seitz cell:   18.00000000

     reference position (x0):         0.02161009    8.65943167   -0.10003363 bohr

     Dipole moments (with respect to x0):
     Elect   0.0225   0.4174  -0.5595 au (Ha),   0.0572   1.0610  -1.4222 Debye
     Ionic  -0.0000   0.0000   0.0000 au (Ha),  -0.0000   0.0000   0.0000 Debye
     Total   0.0225   0.4174  -0.5595 au (Ha),   0.0572   1.0610  -1.4222 Debye

     Electrons quadrupole moment       -385.16571635 a.u. (Ha)
          Ions quadrupole moment        342.44579444 a.u. (Ha)
         Total quadrupole moment        -42.71992191 a.u. (Ha)

     *********    MAKOV-PAYNE CORRECTION    *********

     Makov-Payne correction with Madelung constant =   2.8373

     Makov-Payne correction     0.00000000 Ry =  0.000 eV (1st order, 1/a0)
                                0.00000706 Ry =  0.000 eV (2nd order, 1/a0^3)
                                0.00000706 Ry =  0.000 eV (total)

!    Total+Makov-Payne energy  =    -104.05002976 Ry
     Corrected vacuum level    =       0.00843418 eV

     convergence has been achieved in  12 iterations

     Writing all to output data dir ./pwscf.save/

     init_run     :     29.87s CPU     33.13s WALL (       1 calls)
     electrons    :    135.89s CPU    167.89s WALL (       1 calls)

     Called by init_run:
     wfcinit      :      1.67s CPU      2.05s WALL (       1 calls)
     potinit      :      3.78s CPU      4.99s WALL (       1 calls)
     hinit0       :      2.06s CPU      2.36s WALL (       1 calls)

     Called by electrons:
     c_bands      :     47.07s CPU     49.93s WALL (      12 calls)
     sum_band     :     39.34s CPU     50.80s WALL (      12 calls)
     v_of_rho     :     24.77s CPU     33.11s WALL (      13 calls)
     newd         :     17.39s CPU     26.88s WALL (      13 calls)
     PAW_pot      :      0.19s CPU      0.20s WALL (      13 calls)
     mix_rho      :      7.89s CPU      8.47s WALL (      12 calls)

     Called by c_bands:
     init_us_2    :      0.64s CPU      0.67s WALL (      25 calls)
     init_us_2:cp :      0.64s CPU      0.67s WALL (      25 calls)
     regterg      :     46.11s CPU     48.96s WALL (      12 calls)

     Called by *egterg:
     rdiaghg      :      0.01s CPU      0.02s WALL (      51 calls)
     h_psi        :     40.53s CPU     43.54s WALL (      52 calls)
     s_psi        :      1.25s CPU      1.26s WALL (      52 calls)
     g_psi        :      0.13s CPU      0.13s WALL (      39 calls)

     Called by h_psi:
     h_psi:calbec :      1.12s CPU      1.12s WALL (      52 calls)
     vloc_psi     :     37.88s CPU     40.86s WALL (      52 calls)
     add_vuspsi   :      1.25s CPU      1.25s WALL (      52 calls)

     General routines
     calbec       :      1.40s CPU      1.41s WALL (      64 calls)
     fft          :     20.90s CPU     26.00s WALL (     117 calls)
     ffts         :      1.85s CPU      2.15s WALL (      12 calls)
     fftw         :     34.14s CPU     37.44s WALL (     432 calls)

     Parallel routines

     PWSCF        :   2m47.54s CPU   3m25.26s WALL


   This run was terminated on:  15:22:39  12Oct2023            

=------------------------------------------------------------------------------=
   JOB DONE.
=------------------------------------------------------------------------------=
