
     Program PWSCF v.7.2 starts on  6Oct2023 at 22:41:30 

     This program is part of the open-source Quantum ESPRESSO suite
     for quantum simulation of materials; please cite
         "P. Giannozzi et al., J. Phys.:Condens. Matter 21 395502 (2009);
         "P. Giannozzi et al., J. Phys.:Condens. Matter 29 465901 (2017);
         "P. Giannozzi et al., J. Chem. Phys. 152 154105 (2020);
          URL http://www.quantum-espresso.org", 
     in publications or presentations arising from this work. More details at
     http://www.quantum-espresso.org/quote

     Parallel version (MPI), running on    32 processors

     MPI processes distributed on     1 nodes
     508688 MiB available memory on the printing compute node when the environment starts

     Reading input from water_dimer_O_H_contact_40_precision_dimer.in
Warning: card &CELL ignored
Warning: card / ignored

     Current dimensions of program PWSCF are:
     Max number of different atomic species (ntypx) = 10
     Max number of k-points (npk) =  40000
     Max angular momentum in pseudopotentials (lmaxx) =  4
     file H.pbe-kjpaw_psl.1.0.0.UPF: wavefunction(s)  1S renormalized
     file O.pbe-n-kjpaw_psl.1.0.0.UPF: wavefunction(s)  2S 2P renormalized

     IMPORTANT: XC functional enforced from input :
     Exchange-correlation= PBE
                           (   1   4   3   4   0   0   0)
     Any further DFT definition will be discarded
     Please, verify this is what you really want


     gamma-point specific algorithms are used

     R & G space division:  proc/nbgrp/npool/nimage =      32
     Subspace diagonalization in iterative solution of the eigenvalue problem:
     a serial algorithm will be used


     Parallelization info
     --------------------
     sticks:   dense  smooth     PW     G-vecs:    dense   smooth      PW
     Min        6395    6395   1598              2177048  2177048  272114
     Max        6398    6398   1600              2177062  2177062  272124
     Sum      204693  204693  51189             69665707 69665707 8707803

     Using Slab Decomposition



     bravais-lattice index     =            0
     lattice parameter (alat)  =      66.1404  a.u.
     unit-cell volume          =  289334.8415 (a.u.)^3
     number of atoms/cell      =            6
     number of atomic types    =            2
     number of electrons       =        16.00
     number of Kohn-Sham states=            8
     kinetic-energy cutoff     =     147.0000  Ry
     charge density cutoff     =     588.0000  Ry
     scf convergence threshold =      1.0E-07
     mixing beta               =       0.7000
     number of iterations used =            8  plain     mixing
     Exchange-correlation= PBE
                           (   1   4   3   4   0   0   0)

     celldm(1)=  66.140414  celldm(2)=   0.000000  celldm(3)=   0.000000
     celldm(4)=   0.000000  celldm(5)=   0.000000  celldm(6)=   0.000000

     crystal axes: (cart. coord. in units of alat)
               a(1) = (   1.000000   0.000000   0.000000 )  
               a(2) = (   0.000000   1.000000   0.000000 )  
               a(3) = (   0.000000   0.000000   1.000000 )  

     reciprocal axes: (cart. coord. in units 2 pi/alat)
               b(1) = (  1.000000  0.000000  0.000000 )  
               b(2) = (  0.000000  1.000000  0.000000 )  
               b(3) = (  0.000000  0.000000  1.000000 )  


     PseudoPot. # 1 for H  read from file:
     /home/users/klimj2am/src/pslibrary.1.0.0/pbe/PSEUDOPOTENTIALS/H.pbe-kjpaw_psl.1.0.0.UPF
     MD5 check sum: 220281c0717fd894cece6904c624ceaa
     Pseudo is Projector augmented-wave, Zval =  1.0
     Generated using 'atomic' code by A. Dal Corso  v.7.2
     Shape of augmentation charge: PSQ
     Using radial grid of  929 points,  2 beta functions with: 
                l(1) =   0
                l(2) =   0
     Q(r) pseudized with 0 coefficients 


     PseudoPot. # 2 for O  read from file:
     /home/users/klimj2am/src/pslibrary.1.0.0/pbe/PSEUDOPOTENTIALS/O.pbe-n-kjpaw_psl.1.0.0.UPF
     MD5 check sum: 48e285564fec6dca10ec424bc53b541b
     Pseudo is Projector augmented-wave + core cor, Zval =  6.0
     Generated using 'atomic' code by A. Dal Corso  v.7.2
     Shape of augmentation charge: PSQ
     Using radial grid of 1095 points,  4 beta functions with: 
                l(1) =   0
                l(2) =   0
                l(3) =   1
                l(4) =   1
     Q(r) pseudized with 0 coefficients 


     atomic species   valence    mass     pseudopotential
        H              1.00     1.00800     H ( 1.00)
        O              6.00    15.99900     O ( 1.00)

     No symmetry found



   Cartesian axes

     site n.     atom                  positions (alat units)
         1           H   tau(   1) = (   0.0005031   0.0182990  -0.0217529  )
         2           H   tau(   2) = (  -0.0003822   0.0180467   0.0215586  )
         3           H   tau(   3) = (   0.0006882   0.1493404   0.0000369  )
         4           H   tau(   4) = (   0.0281370   0.1828522  -0.0004668  )
         5           O   tau(   5) = (   0.0000000   0.0350630   0.0000000  )
         6           O   tau(   6) = (   0.0013498   0.1768002   0.0000724  )

     number of k points=     1
                       cart. coord. in units 2pi/alat
        k(    1) = (   0.0000000   0.0000000   0.0000000), wk =   2.0000000

     Dense  grid: 34832854 G-vectors     FFT dimensions: ( 512, 512, 512)

     Estimated max dynamical RAM per process >       1.58 GB

     Estimated total dynamical RAM >      50.69 GB

     Initial potential from superposition of free atoms

     starting charge      16.0000, renormalised to      16.0000

     negative rho (up, down):  8.677E-04 0.000E+00
     Starting wfcs are   12 randomized atomic wfcs
     Checking if some PAW data can be deallocated... 

     total cpu time spent up to now is       37.5 secs

     Self-consistent Calculation

     iteration #  1     ecut=   147.00 Ry     beta= 0.70
     Davidson diagonalization with overlap
     ethr =  1.00E-02,  avg # of iterations =  3.0

     negative rho (up, down):  9.581E-04 0.000E+00

     total cpu time spent up to now is       48.6 secs

     total energy              =     -87.56514721 Ry
     estimated scf accuracy    <       0.99177815 Ry

     iteration #  2     ecut=   147.00 Ry     beta= 0.70
     Davidson diagonalization with overlap
     ethr =  6.20E-03,  avg # of iterations =  5.0

     negative rho (up, down):  1.072E-03 0.000E+00

     total cpu time spent up to now is       60.6 secs

     total energy              =     -87.95466346 Ry
     estimated scf accuracy    <       0.34273268 Ry

     iteration #  3     ecut=   147.00 Ry     beta= 0.70
     Davidson diagonalization with overlap
     ethr =  2.14E-03,  avg # of iterations =  3.0

     negative rho (up, down):  1.438E-03 0.000E+00

     total cpu time spent up to now is       71.3 secs

     total energy              =     -87.99791245 Ry
     estimated scf accuracy    <       0.07150417 Ry

     iteration #  4     ecut=   147.00 Ry     beta= 0.70
     Davidson diagonalization with overlap
     ethr =  4.47E-04,  avg # of iterations =  5.0

     negative rho (up, down):  1.604E-03 0.000E+00

     total cpu time spent up to now is       82.6 secs

     total energy              =     -88.07025584 Ry
     estimated scf accuracy    <       0.01969724 Ry

     iteration #  5     ecut=   147.00 Ry     beta= 0.70
     Davidson diagonalization with overlap
     ethr =  1.23E-04,  avg # of iterations =  6.0

     negative rho (up, down):  1.625E-03 0.000E+00

     total cpu time spent up to now is       94.7 secs

     total energy              =     -88.07904792 Ry
     estimated scf accuracy    <       0.00387217 Ry

     iteration #  6     ecut=   147.00 Ry     beta= 0.70
     Davidson diagonalization with overlap
     ethr =  2.42E-05,  avg # of iterations =  7.0

     negative rho (up, down):  1.633E-03 0.000E+00

     total cpu time spent up to now is      107.1 secs

     total energy              =     -88.08117647 Ry
     estimated scf accuracy    <       0.00187281 Ry

     iteration #  7     ecut=   147.00 Ry     beta= 0.70
     Davidson diagonalization with overlap
     ethr =  1.17E-05,  avg # of iterations =  2.0

     negative rho (up, down):  1.722E-03 0.000E+00

     total cpu time spent up to now is      116.8 secs

     total energy              =     -88.08125939 Ry
     estimated scf accuracy    <       0.00037010 Ry

     iteration #  8     ecut=   147.00 Ry     beta= 0.70
     Davidson diagonalization with overlap
     ethr =  2.31E-06,  avg # of iterations =  6.0

     negative rho (up, down):  1.724E-03 0.000E+00

     total cpu time spent up to now is      129.1 secs

     total energy              =     -88.08162028 Ry
     estimated scf accuracy    <       0.00028585 Ry

     iteration #  9     ecut=   147.00 Ry     beta= 0.70
     Davidson diagonalization with overlap
     ethr =  1.79E-06,  avg # of iterations =  2.0

     negative rho (up, down):  1.724E-03 0.000E+00

     total cpu time spent up to now is      139.1 secs

     total energy              =     -88.08162342 Ry
     estimated scf accuracy    <       0.00044964 Ry

     iteration # 10     ecut=   147.00 Ry     beta= 0.70
     Davidson diagonalization with overlap
     ethr =  1.79E-06,  avg # of iterations =  1.0

     negative rho (up, down):  1.719E-03 0.000E+00

     total cpu time spent up to now is      148.6 secs

     total energy              =     -88.08143876 Ry
     estimated scf accuracy    <       0.00043391 Ry

     iteration # 11     ecut=   147.00 Ry     beta= 0.70
     Davidson diagonalization with overlap
     ethr =  1.79E-06,  avg # of iterations =  2.0

     negative rho (up, down):  1.716E-03 0.000E+00

     total cpu time spent up to now is      158.4 secs

     total energy              =     -88.08143381 Ry
     estimated scf accuracy    <       0.00008399 Ry

     iteration # 12     ecut=   147.00 Ry     beta= 0.70
     Davidson diagonalization with overlap
     ethr =  5.25E-07,  avg # of iterations =  6.0

     negative rho (up, down):  1.716E-03 0.000E+00

     total cpu time spent up to now is      170.6 secs

     total energy              =     -88.08157537 Ry
     estimated scf accuracy    <       0.00020503 Ry

     iteration # 13     ecut=   147.00 Ry     beta= 0.70
     Davidson diagonalization with overlap
     ethr =  5.25E-07,  avg # of iterations =  1.0

     negative rho (up, down):  1.715E-03 0.000E+00

     total cpu time spent up to now is      180.1 secs

     total energy              =     -88.08154334 Ry
     estimated scf accuracy    <       0.00027000 Ry

     iteration # 14     ecut=   147.00 Ry     beta= 0.70
     Davidson diagonalization with overlap
     ethr =  5.25E-07,  avg # of iterations =  1.0

     negative rho (up, down):  1.712E-03 0.000E+00

     total cpu time spent up to now is      189.6 secs

     total energy              =     -88.08141246 Ry
     estimated scf accuracy    <       0.00022477 Ry

     iteration # 15     ecut=   147.00 Ry     beta= 0.70
     Davidson diagonalization with overlap
     ethr =  5.25E-07,  avg # of iterations =  5.0

     negative rho (up, down):  1.711E-03 0.000E+00

     total cpu time spent up to now is      201.4 secs

     total energy              =     -88.08149212 Ry
     estimated scf accuracy    <       0.00006624 Ry

     iteration # 16     ecut=   147.00 Ry     beta= 0.70
     Davidson diagonalization with overlap
     ethr =  4.14E-07,  avg # of iterations =  2.0

     negative rho (up, down):  1.712E-03 0.000E+00

     total cpu time spent up to now is      211.1 secs

     total energy              =     -88.08148993 Ry
     estimated scf accuracy    <       0.00006928 Ry

     iteration # 17     ecut=   147.00 Ry     beta= 0.70
     Davidson diagonalization with overlap
     ethr =  4.14E-07,  avg # of iterations =  2.0

     negative rho (up, down):  1.712E-03 0.000E+00

     total cpu time spent up to now is      221.0 secs

     total energy              =     -88.08149507 Ry
     estimated scf accuracy    <       0.00006264 Ry

     iteration # 18     ecut=   147.00 Ry     beta= 0.70
     Davidson diagonalization with overlap
     ethr =  3.92E-07,  avg # of iterations =  1.0

     negative rho (up, down):  1.712E-03 0.000E+00

     total cpu time spent up to now is      230.5 secs

     total energy              =     -88.08147392 Ry
     estimated scf accuracy    <       0.00006762 Ry

     iteration # 19     ecut=   147.00 Ry     beta= 0.70
     Davidson diagonalization with overlap
     ethr =  3.92E-07,  avg # of iterations =  1.0

     negative rho (up, down):  1.713E-03 0.000E+00

     total cpu time spent up to now is      240.0 secs

     total energy              =     -88.08146052 Ry
     estimated scf accuracy    <       0.00003056 Ry

     iteration # 20     ecut=   147.00 Ry     beta= 0.70
     Davidson diagonalization with overlap
     ethr =  1.91E-07,  avg # of iterations =  4.0

     negative rho (up, down):  1.713E-03 0.000E+00

     total cpu time spent up to now is      251.4 secs

     total energy              =     -88.08147628 Ry
     estimated scf accuracy    <       0.00000572 Ry

     iteration # 21     ecut=   147.00 Ry     beta= 0.70
     Davidson diagonalization with overlap
     ethr =  3.58E-08,  avg # of iterations =  2.0

     negative rho (up, down):  1.713E-03 0.000E+00

     total cpu time spent up to now is      261.2 secs

     total energy              =     -88.08147587 Ry
     estimated scf accuracy    <       0.00000380 Ry

     iteration # 22     ecut=   147.00 Ry     beta= 0.70
     Davidson diagonalization with overlap
     ethr =  2.37E-08,  avg # of iterations =  2.0

     negative rho (up, down):  1.713E-03 0.000E+00

     total cpu time spent up to now is      271.1 secs

     total energy              =     -88.08147583 Ry
     estimated scf accuracy    <       0.00000188 Ry

     iteration # 23     ecut=   147.00 Ry     beta= 0.70
     Davidson diagonalization with overlap
     ethr =  1.18E-08,  avg # of iterations =  4.0

     negative rho (up, down):  1.713E-03 0.000E+00

     total cpu time spent up to now is      281.8 secs

     total energy              =     -88.08147585 Ry
     estimated scf accuracy    <       0.00000076 Ry

     iteration # 24     ecut=   147.00 Ry     beta= 0.70
     Davidson diagonalization with overlap
     ethr =  4.75E-09,  avg # of iterations =  4.0

     negative rho (up, down):  1.713E-03 0.000E+00

     total cpu time spent up to now is      292.1 secs

     End of self-consistent calculation

          k = 0.0000 0.0000 0.0000 (****** PWs)   bands (ev):

   -25.5734 -25.1639 -13.3238 -12.9138  -9.5209  -9.0953  -7.4211  -7.0171

     highest occupied level (ev):    -7.0171

!    total energy              =     -88.08147619 Ry
     total all-electron energy =      -305.775239 Ry
     estimated scf accuracy    <       0.00000004 Ry

     The total energy is the sum of the following terms:
     one-electron contribution =    -169.89213274 Ry
     hartree contribution      =      88.24761039 Ry
     xc contribution           =     -17.74203675 Ry
     ewald contribution        =      30.47784001 Ry
     one-center paw contrib.   =     -19.17275710 Ry

     charge density inside the Wigner-Seitz cell:   16.00000000

     reference position (x0):         0.15313440    6.77822413   -0.00078489 bohr

     Dipole moments (with respect to x0):
     Elect   0.5494  -1.2048  -0.0160 au (Ha),   1.3963  -3.0624  -0.0408 Debye
     Ionic  -0.0000  -0.0000   0.0000 au (Ha),  -0.0000  -0.0000   0.0000 Debye
     Total   0.5494  -1.2048  -0.0160 au (Ha),   1.3963  -3.0624  -0.0408 Debye

     Electrons quadrupole moment       -397.10563893 a.u. (Ha)
          Ions quadrupole moment        371.56660371 a.u. (Ha)
         Total quadrupole moment        -25.53903522 a.u. (Ha)

     *********    MAKOV-PAYNE CORRECTION    *********

     Makov-Payne correction with Madelung constant =   2.8373

     Makov-Payne correction     0.00000000 Ry =  0.000 eV (1st order, 1/a0)
                                0.00002539 Ry =  0.000 eV (2nd order, 1/a0^3)
                                0.00002539 Ry =  0.000 eV (total)

!    Total+Makov-Payne energy  =     -88.08145080 Ry
     Corrected vacuum level    =       0.00502246 eV

     convergence has been achieved in  24 iterations

     Writing all to output data dir ./pwscf.save/

     init_run     :     34.61s CPU     37.06s WALL (       1 calls)
     electrons    :    224.72s CPU    257.26s WALL (       1 calls)

     Called by init_run:
     wfcinit      :      1.67s CPU      1.88s WALL (       1 calls)
     potinit      :      3.63s CPU      4.53s WALL (       1 calls)
     hinit0       :      5.18s CPU      5.53s WALL (       1 calls)

     Called by electrons:
     c_bands      :     80.94s CPU     85.21s WALL (      24 calls)
     sum_band     :     51.81s CPU     60.44s WALL (      24 calls)
     v_of_rho     :     50.10s CPU     61.90s WALL (      25 calls)
     newd         :     22.99s CPU     29.73s WALL (      25 calls)
     PAW_pot      :      0.39s CPU      0.40s WALL (      25 calls)
     mix_rho      :     18.16s CPU     19.07s WALL (      24 calls)

     Called by c_bands:
     init_us_2    :      1.19s CPU      1.23s WALL (      49 calls)
     init_us_2:cp :      1.19s CPU      1.23s WALL (      49 calls)
     regterg      :     79.25s CPU     83.51s WALL (      24 calls)

     Called by *egterg:
     rdiaghg      :      0.02s CPU      0.03s WALL (     101 calls)
     h_psi        :     70.99s CPU     75.31s WALL (     102 calls)
     s_psi        :      1.77s CPU      1.77s WALL (     102 calls)
     g_psi        :      0.22s CPU      0.23s WALL (      77 calls)

     Called by h_psi:
     h_psi:calbec :      1.55s CPU      1.58s WALL (     102 calls)
     vloc_psi     :     67.21s CPU     71.49s WALL (     102 calls)
     add_vuspsi   :      1.77s CPU      1.77s WALL (     102 calls)

     General routines
     calbec       :      2.07s CPU      2.09s WALL (     126 calls)
     fft          :     41.16s CPU     49.90s WALL (     225 calls)
     ffts         :      3.71s CPU      4.46s WALL (      24 calls)
     fftw         :     63.00s CPU     67.69s WALL (     674 calls)

     Parallel routines

     PWSCF        :   4m21.29s CPU   4m58.50s WALL


   This run was terminated on:  22:46:29   6Oct2023            

=------------------------------------------------------------------------------=
   JOB DONE.
=------------------------------------------------------------------------------=
