 vasp.6.1.2 22Jul20 (build Jan  6 2021 09:55:43) gamma-only                      
 executed on             LinuxPGI date 2023.10.20  14:40:29
 running on   32 total cores
 distrk:  each k-point on   32 cores,    1 groups
 distr:  one band on NCORE=   1 cores,   32 groups


--------------------------------------------------------------------------------------------------------


 INCAR:
 POTCAR:    PAW_PBE H_s 15May2010                 
 POTCAR:    PAW_PBE C_s 06Sep2000                 
 POTCAR:    PAW_PBE O_s 07Sep2000                 
 -----------------------------------------------------------------------------
|                                                                             |
|           W    W    AA    RRRRR   N    N  II  N    N   GGGG   !!!           |
|           W    W   A  A   R    R  NN   N  II  NN   N  G    G  !!!           |
|           W    W  A    A  R    R  N N  N  II  N N  N  G       !!!           |
|           W WW W  AAAAAA  RRRRR   N  N N  II  N  N N  G  GGG   !            |
|           WW  WW  A    A  R   R   N   NN  II  N   NN  G    G                |
|           W    W  A    A  R    R  N    N  II  N    N   GGGG   !!!           |
|                                                                             |
|     For optimal performance we recommend to set                             |
|       NCORE = 4 - approx SQRT(number of cores).                             |
|     NCORE specifies how many cores store one orbital (NPAR=cpu/NCORE).      |
|     This setting can greatly improve the performance of VASP for DFT.       |
|     The default, NCORE=1 might be grossly inefficient on modern             |
|     multi-core architectures or massively parallel machines. Do your        |
|     own testing!!!!                                                         |
|     Unfortunately you need to use the default for GW and RPA                |
|     calculations (for HF NCORE is supported but not extensively tested      |
|     yet).                                                                   |
|                                                                             |
 -----------------------------------------------------------------------------

 POTCAR:    PAW_PBE H_s 15May2010                 
   VRHFIN =H: ultrasoft test                                                                        
   LEXCH  = PE                                                                                      
   EATOM  =    12.4884 eV,    0.9179 Ry                                                             
                                                                                                    
   TITEL  = PAW_PBE H_s 15May2010                                                                   
   LULTRA =        F    use ultrasoft PP ?                                                          
   IUNSCR =        0    unscreen: 0-lin 1-nonlin 2-no                                               
   RPACOR =    0.000    partial core radius                                                         
   POMASS =    1.000; ZVAL   =    1.000    mass and valenz                                          
   RCORE  =    1.300    outmost cutoff radius                                                       
   RWIGS  =    0.700; RWIGS  =    0.370    wigner-seitz radius (au A)                               
   ENMAX  =  200.000; ENMIN  =  150.000 eV                                                          
   RCLOC  =    0.701    cutoff for local pot                                                        
   LCOR   =        T    correct aug charges                                                         
   LPAW   =        T    paw PP                                                                      
   EAUG   =  300.000                                                                                
   RMAX   =    1.330    core radius for proj-oper                                                   
   RAUG   =    1.200    factor for augmentation sphere                                              
   RDEP   =    1.337    radius for radial grids                                                     
   RDEPT  =    1.114    core radius for aug-charge                                                  
                                                                                                    
   Atomic configuration                                                                             
    2 entries                                                                                       
     n  l   j            E        occ.                                                              
     1  0  0.50        -6.4927   1.0000                                                             
     2  1  0.50        -3.4015   0.0000                                                             
   Description                                                                                      
     l       E           TYP  RCUT    TYP  RCUT                                                     
     0     -6.4927494     23  1.300                                                                 
     0      6.8029130     23  1.300                                                                 
     1     -4.0817478     23  1.300                                                                 
  local pseudopotential read in
  atomic valenz-charges read in
  non local Contribution for L=            0  read in
    real space projection operators read in
  non local Contribution for L=            0  read in
    real space projection operators read in
  non local Contribution for L=            1  read in
    real space projection operators read in
    PAW grid and wavefunctions read in
 
   number of l-projection  operators is LMAX  =            3
   number of lm-projection operators is LMMAX =            5
 
 POTCAR:    PAW_PBE C_s 06Sep2000                 
   VRHFIN =C: s2p2                                                                                  
   LEXCH  = PE                                                                                      
   EATOM  =   147.1560 eV,   10.8157 Ry                                                             
                                                                                                    
   TITEL  = PAW_PBE C_s 06Sep2000                                                                   
   LULTRA =        F    use ultrasoft PP ?                                                          
   IUNSCR =        0    unscreen: 0-lin 1-nonlin 2-no                                               
   RPACOR =    0.000    partial core radius                                                         
   POMASS =   12.011; ZVAL   =    4.000    mass and valenz                                          
   RCORE  =    1.850    outmost cutoff radius                                                       
   RWIGS  =    1.890; RWIGS  =    1.000    wigner-seitz radius (au A)                               
   ENMAX  =  273.911; ENMIN  =  205.433 eV                                                          
   RCLOC  =    0.804    cutoff for local pot                                                        
   LCOR   =        T    correct aug charges                                                         
   LPAW   =        T    paw PP                                                                      
   EAUG   =  439.243                                                                                
   DEXC   =    0.000                                                                                
   RMAX   =    1.897    core radius for proj-oper                                                   
   RAUG   =    1.300    factor for augmentation sphere                                              
   RDEP   =    1.940    radius for radial grids                                                     
   RDEPT  =    1.573    core radius for aug-charge                                                  
                                                                                                    
   Atomic configuration                                                                             
    4 entries                                                                                       
     n  l   j            E        occ.                                                              
     1  0  0.50      -273.3789   2.0000                                                             
     2  0  0.50       -13.7508   2.0000                                                             
     2  1  0.50        -5.2854   2.0000                                                             
     3  2  1.50        -1.3606   0.0000                                                             
   Description                                                                                      
     l       E           TYP  RCUT    TYP  RCUT                                                     
     0    -13.7508457     23  1.500                                                                 
     0    -11.0934578     23  1.500                                                                 
     1     -5.2854381     23  1.850                                                                 
     1     -1.3099858     23  1.850                                                                 
  local pseudopotential read in
  atomic valenz-charges read in
  non local Contribution for L=            0  read in
    real space projection operators read in
  non local Contribution for L=            0  read in
    real space projection operators read in
  non local Contribution for L=            1  read in
    real space projection operators read in
  non local Contribution for L=            1  read in
    real space projection operators read in
    PAW grid and wavefunctions read in
 
   number of l-projection  operators is LMAX  =            4
   number of lm-projection operators is LMMAX =            8
 
 POTCAR:    PAW_PBE O_s 07Sep2000                 
   VRHFIN =O: s2p4                                                                                  
   LEXCH  = PE                                                                                      
   EATOM  =   432.3788 eV,   31.7789 Ry                                                             
                                                                                                    
   TITEL  = PAW_PBE O_s 07Sep2000                                                                   
   LULTRA =        F    use ultrasoft PP ?                                                          
   IUNSCR =        0    unscreen: 0-lin 1-nonlin 2-no                                               
   RPACOR =    0.000    partial core radius                                                         
   POMASS =   16.000; ZVAL   =    6.000    mass and valenz                                          
   RCORE  =    1.850    outmost cutoff radius                                                       
   RWIGS  =    1.700; RWIGS  =    0.900    wigner-seitz radius (au A)                               
   ENMAX  =  282.853; ENMIN  =  212.140 eV                                                          
   RCLOC  =    0.804    cutoff for local pot                                                        
   LCOR   =        T    correct aug charges                                                         
   LPAW   =        T    paw PP                                                                      
   EAUG   =  412.352                                                                                
   RMAX   =    1.897    core radius for proj-oper                                                   
   RAUG   =    1.300    factor for augmentation sphere                                              
   RDEP   =    1.878    radius for radial grids                                                     
   RDEPT  =    1.572    core radius for aug-charge                                                  
                                                                                                    
   Atomic configuration                                                                             
    4 entries                                                                                       
     n  l   j            E        occ.                                                              
     1  0  0.50      -514.6923   2.0000                                                             
     2  0  0.50       -23.9615   2.0000                                                             
     2  1  0.50        -9.0305   4.0000                                                             
     3  2  1.50        -1.3606   0.0000                                                             
   Description                                                                                      
     l       E           TYP  RCUT    TYP  RCUT                                                     
     0    -23.9615315     23  1.500                                                                 
     0    -25.3221141     23  1.500                                                                 
     1     -9.0304908     23  1.850                                                                 
     1     -7.3935399     23  1.850                                                                 
  local pseudopotential read in
  atomic valenz-charges read in
  non local Contribution for L=            0  read in
    real space projection operators read in
  non local Contribution for L=            0  read in
    real space projection operators read in
  non local Contribution for L=            1  read in
    real space projection operators read in
  non local Contribution for L=            1  read in
    real space projection operators read in
    PAW grid and wavefunctions read in
 
   number of l-projection  operators is LMAX  =            4
   number of lm-projection operators is LMMAX =            8
 
  PAW_PBE H_s 15May2010                 :
 energy of atom  1       EATOM=  -12.4884
 kinetic energy error for atom=    0.0000 (will be added to EATOM!!)
  PAW_PBE C_s 06Sep2000                 :
 energy of atom  2       EATOM= -147.1560
 kinetic energy error for atom=    0.0002 (will be added to EATOM!!)
  PAW_PBE O_s 07Sep2000                 :
 energy of atom  3       EATOM= -432.3788
 kinetic energy error for atom=    0.0004 (will be added to EATOM!!)
 
 
 POSCAR:  H  C  O
  positions in cartesian coordinates
  No initial velocities read in
 exchange correlation table for  LEXCH =        8
   RHO(1)=    0.500       N(1)  =     2000
   RHO(2)=  100.500       N(2)  =     4000
 


--------------------------------------------------------------------------------------------------------


 ion  position               nearest neighbor table
   1  0.001  0.112  0.978-   6 0.96
   2  0.000  0.114  0.021-   6 0.96
   3  0.000  0.003  0.000-   4 1.17   5 1.17
   4  0.000  0.036  0.000-   3 1.17   6 2.10
   5  0.000  0.969  0.000-   3 1.17
   6  0.000  0.096  0.000-   2 0.96   1 0.96   4 2.10
 
  LATTYP: Found a simple cubic cell.
 ALAT       =    35.0000000000
  
  Lattice vectors:
  
 A1 = (  35.0000000000,   0.0000000000,   0.0000000000)
 A2 = (   0.0000000000,  35.0000000000,   0.0000000000)
 A3 = (   0.0000000000,   0.0000000000,  35.0000000000)


Analysis of symmetry for initial positions (statically):
=====================================================================
 Subroutine PRICEL returns:
 Original cell was already a primitive cell.
 

 Routine SETGRP: Setting up the symmetry group for a 
 simple cubic supercell.


 Subroutine GETGRP returns: Found  1 space group operations
 (whereof  1 operations were pure point group operations)
 out of a pool of 48 trial point group operations.


The static configuration has the point symmetry C_1 .


Analysis of symmetry for dynamics (positions and initial velocities):
=====================================================================
 Subroutine PRICEL returns:
 Original cell was already a primitive cell.
 

 Routine SETGRP: Setting up the symmetry group for a 
 simple cubic supercell.


 Subroutine GETGRP returns: Found  1 space group operations
 (whereof  1 operations were pure point group operations)
 out of a pool of 48 trial point group operations.


The dynamic configuration has the point symmetry C_1 .


 Subroutine INISYM returns: Found  1 space group operations
 (whereof  1 operations are pure point group operations),
 and found     1 'primitive' translations


----------------------------------------------------------------------------------------

                                     Primitive cell                                     

  volume of cell :   42875.0000

  direct lattice vectors                    reciprocal lattice vectors
    35.000000000  0.000000000  0.000000000     0.028571429  0.000000000  0.000000000
     0.000000000 35.000000000  0.000000000     0.000000000  0.028571429  0.000000000
     0.000000000  0.000000000 35.000000000     0.000000000  0.000000000  0.028571429

  length of vectors
    35.000000000 35.000000000 35.000000000     0.028571429  0.028571429  0.028571429

  position of ions in fractional coordinates (direct lattice)
     0.000848682  0.111789927  0.977571084
     0.000390051  0.113844101  0.020841195
     0.000000000  0.002521600  0.000000000
     0.000000000  0.035956457  0.000000000
     0.000000000  0.969086743  0.000000000
     0.000000000  0.095956457  0.000000000

  ion indices of the primitive-cell ions
   primitive index   ion index
                 1           1
                 2           2
                 3           3
                 4           4
                 5           5
                 6           6

----------------------------------------------------------------------------------------

 
 
 KPOINTS: g                                       

Automatic generation of k-mesh.
Space group operators:
 irot       det(A)        alpha          n_x          n_y          n_z        tau_x        tau_y        tau_z
    1     1.000000     0.000000     1.000000     0.000000     0.000000     0.000000     0.000000     0.000000
 
 Subroutine IBZKPT returns following result:
 ===========================================
 
 Found      1 irreducible k-points:
 
 Following reciprocal coordinates:
            Coordinates               Weight
  0.000000  0.000000  0.000000      1.000000
 
 Following cartesian coordinates:
            Coordinates               Weight
  0.000000  0.000000  0.000000      1.000000
 


--------------------------------------------------------------------------------------------------------




 Dimension of arrays:
   k-points           NKPTS =      1   k-points in BZ     NKDIM =      1   number of bands    NBANDS=     32
   number of dos      NEDOS =    301   number of ions     NIONS =      6
   non local maximal  LDIM  =      4   non local SUM 2l+1 LMDIM =      8
   total plane-waves  NPLWV = ******
   max r-space proj   IRMAX =      1   max aug-charges    IRDMAX=  29269
   dimension x,y,z NGX =   378 NGY =  378 NGZ =  378
   dimension x,y,z NGXF=   756 NGYF=  756 NGZF=  756
   support grid    NGXF=   756 NGYF=  756 NGZF=  756
   ions per type =               2   1   3
   NGX,Y,Z   is equivalent  to a cutoff of  17.95, 17.95, 17.95 a.u.
   NGXF,Y,Z  is equivalent  to a cutoff of  35.91, 35.91, 35.91 a.u.

 SYSTEM =  C                                       
 POSCAR =   H  C  O                                

 Startparameter for this run:
   NWRITE =      2    write-flag & timer
   PREC   = acc       normal or accurate (medium, high low for compatibility)
   ISTART =      0    job   : 0-new  1-cont  2-samecut
   ICHARG =      2    charge: 1-file 2-atom 10-const
   ISPIN  =      1    spin polarized calculation?
   LNONCOLLINEAR =      F non collinear calculations
   LSORBIT =      F    spin-orbit coupling
   INIWAV =      1    electr: 0-lowe 1-rand  2-diag
   LASPH  =      T    aspherical Exc in radial PAW
   METAGGA=      F    non-selfconsistent MetaGGA calc.

 Electronic Relaxation 1
   ENCUT  = 1000.0 eV  73.50 Ry    8.57 a.u.  90.25 90.25 90.25*2*pi/ulx,y,z
   ENINI  = 1000.0     initial cutoff
   ENAUG  =  439.2 eV  augmentation charge cutoff
   NELM   =     60;   NELMIN=  2; NELMDL= -5     # of ELM steps 
   EDIFF  = 0.1E-06   stopping-criterion for ELM
   LREAL  =      F    real-space projection
   NLSPLINE    = F    spline interpolate recip. space projectors
   LCOMPAT=      F    compatible to vasp.4.4
   GGA_COMPAT  = T    GGA compatible to vasp.4.4-vasp.4.6
   LMAXPAW     = -100 max onsite density
   LMAXMIX     =    2 max onsite mixed and CHGCAR
   VOSKOWN=      0    Vosko Wilk Nusair interpolation
   ROPT   =    0.00000   0.00000   0.00000
 Ionic relaxation
   EDIFFG = 0.1E-05   stopping-criterion for IOM
   NSW    =      0    number of steps for IOM
   NBLOCK =      1;   KBLOCK =      1    inner block; outer block 
   IBRION =     -1    ionic relax: 0-MD 1-quasi-New 2-CG
   NFREE  =      0    steps in history (QN), initial steepest desc. (CG)
   ISIF   =      2    stress and relaxation
   IWAVPR =     10    prediction:  0-non 1-charg 2-wave 3-comb
   ISYM   =      2    0-nonsym 1-usesym 2-fastsym
   LCORR  =      T    Harris-Foulkes like correction to forces

   POTIM  = 0.5000    time-step for ionic-motion
   TEIN   =    0.0    initial temperature
   TEBEG  =    0.0;   TEEND  =   0.0 temperature during run
   SMASS  =  -3.00    Nose mass-parameter (am)
   estimated Nose-frequenzy (Omega)   =  0.10E-29 period in steps = 0.13E+47 mass=  -0.280E-25a.u.
   SCALEE = 1.0000    scale energy and forces
   NPACO  =    256;   APACO  = 16.0  distance and # of slots for P.C.
   PSTRESS=    0.0 pullay stress

  Mass of Ions in am
   POMASS =   1.00 12.01 16.00
  Ionic Valenz
   ZVAL   =   1.00  4.00  6.00
  Atomic Wigner-Seitz radii
   RWIGS  =  -1.00 -1.00 -1.00
  virtual crystal weights 
   VCA    =   1.00  1.00  1.00
   NELECT =      24.0000    total number of electrons
   NUPDOWN=      -1.0000    fix difference up-down

 DOS related values:
   EMIN   =  10.00;   EMAX   =-10.00  energy-range for DOS
   EFERMI =   0.00
   ISMEAR =     0;   SIGMA  =   0.01  broadening in eV -4-tet -1-fermi 0-gaus

 Electronic relaxation 2 (details)
   IALGO  =     38    algorithm
   LDIAG  =      T    sub-space diagonalisation (order eigenvalues)
   LSUBROT=      F    optimize rotation matrix (better conditioning)
   TURBO    =      0    0=normal 1=particle mesh
   IRESTART =      0    0=no restart 2=restart with 2 vectors
   NREBOOT  =      0    no. of reboots
   NMIN     =      0    reboot dimension
   EREF     =   0.00    reference energy to select bands
   IMIX   =      4    mixing-type and parameters
     AMIX     =   0.40;   BMIX     =  1.00
     AMIX_MAG =   1.60;   BMIX_MAG =  1.00
     AMIN     =   0.10
     WC   =   100.;   INIMIX=   1;  MIXPRE=   1;  MAXMIX= -45

 Intra band minimization:
   WEIMIN = 0.0000     energy-eigenvalue tresh-hold
   EBREAK =  0.78E-09  absolut break condition
   DEPER  =   0.30     relativ break condition  

   TIME   =   0.40     timestep for ELM

  volume/ion in A,a.u.               =    7145.83     48222.46
  Fermi-wavevector in a.u.,A,eV,Ry     =   0.134920  0.254962  0.247673  0.018203
  Thomas-Fermi vector in A             =   0.783236
 
 Write flags
   LWAVE        =      T    write WAVECAR
   LDOWNSAMPLE  =      F    k-point downsampling of WAVECAR
   LCHARG       =      T    write CHGCAR
   LVTOT        =      F    write LOCPOT, total local potential
   LVHAR        =      F    write LOCPOT, Hartree potential only
   LELF         =      F    write electronic localiz. function (ELF)
   LORBIT       =      0    0 simple, 1 ext, 2 COOP (PROOUT), +10 PAW based schemes


 Dipole corrections
   LMONO  =      F    monopole corrections only (constant potential shift)
   LDIPOL =      F    correct potential (dipole corrections)
   IDIPOL =      4    1-x, 2-y, 3-z, 4-all directions 
   EPSILON=  1.0000000 bulk dielectric constant

 Exchange correlation treatment:
   GGA     =    --    GGA type
   LEXCH   =     8    internal setting for exchange type
   VOSKOWN=      0    Vosko Wilk Nusair interpolation
   LHFCALC =     F    Hartree Fock is set to
   LHFONE  =     F    Hartree Fock one center treatment
   AEXX    =    0.0000 exact exchange contribution

 Linear response parameters
   LEPSILON=     F    determine dielectric tensor
   LRPA    =     F    only Hartree local field effects (RPA)
   LNABLA  =     F    use nabla operator in PAW spheres
   LVEL    =     F    velocity operator in full k-point grid
   LINTERFAST=   F  fast interpolation
   KINTER  =     0    interpolate to denser k-point grid
   CSHIFT  =0.1000    complex shift for real part using Kramers Kronig
   OMEGAMAX=  -1.0    maximum frequency
   DEG_THRESHOLD= 0.2000000E-02 threshold for treating states as degnerate
   RTIME   =   -0.100 relaxation time in fs
  (WPLASMAI=    0.000 imaginary part of plasma frequency in eV, 0.658/RTIME)
   DFIELD  = 0.0000000 0.0000000 0.0000000 field for delta impulse in time
 
 Orbital magnetization related:
   ORBITALMAG=     F  switch on orbital magnetization
   LCHIMAG   =     F  perturbation theory with respect to B field
   DQ        =  0.001000  dq finite difference perturbation B field
   LLRAUG    =     F  two centre corrections for induced B field



--------------------------------------------------------------------------------------------------------


 Static calculation
 charge density and potential will be updated during run
 non-spin polarized calculation
 Variant of blocked Davidson
 Davidson routine will perform the subspace rotation
 perform sub-space diagonalisation
    after iterative eigenvector-optimisation
 modified Broyden-mixing scheme, WC =      100.0
 initial mixing is a Kerker type mixing with AMIX =  0.4000 and BMIX =      1.0000
 Hartree-type preconditioning will be used
 using additional bands            20
 reciprocal scheme for non local part
 calculate Harris-corrections to forces 
   (improved forces if not selfconsistent)
 use gradient corrections 
 use of overlap-Matrix (Vanderbilt PP)
 Gauss-broadening in eV      SIGMA  =   0.01


--------------------------------------------------------------------------------------------------------


  energy-cutoff  :     1000.00
  volume of cell :    42875.00
      direct lattice vectors                 reciprocal lattice vectors
    35.000000000  0.000000000  0.000000000     0.028571429  0.000000000  0.000000000
     0.000000000 35.000000000  0.000000000     0.000000000  0.028571429  0.000000000
     0.000000000  0.000000000 35.000000000     0.000000000  0.000000000  0.028571429

  length of vectors
    35.000000000 35.000000000 35.000000000     0.028571429  0.028571429  0.028571429


 
 k-points in units of 2pi/SCALE and weight: g                                       
   0.00000000  0.00000000  0.00000000       1.000
 
 k-points in reciprocal lattice and weights: g                                       
   0.00000000  0.00000000  0.00000000       1.000
 
 position of ions in fractional coordinates (direct lattice) 
   0.00084868  0.11178993  0.97757108
   0.00039005  0.11384410  0.02084119
   0.00000000  0.00252160  0.00000000
   0.00000000  0.03595646  0.00000000
   0.00000000  0.96908674  0.00000000
   0.00000000  0.09595646  0.00000000
 
 position of ions in cartesian coordinates  (Angst):
   0.02970387  3.91264746 34.21498793
   0.01365177  3.98454352  0.72944182
   0.00000000  0.08825600  0.00000000
   0.00000000  1.25847600  0.00000000
   0.00000000 33.91803600  0.00000000
   0.00000000  3.35847600  0.00000000
 


--------------------------------------------------------------------------------------------------------


 use serial FFT for orbitals x direction half grid
 k-point   1 :   0.0000 0.0000 0.0000  plane waves: 1539209

 maximum and minimum number of plane-waves per node :   1539209  1539209

 maximum number of plane-waves:   1539209
 maximum index in each direction: 
   IXMAX=   90   IYMAX=   90   IZMAX=   90
   IXMIN=    0   IYMIN=  -90   IZMIN=  -90


 serial   3D FFT for wavefunctions
 parallel 3D FFT for charge:
    minimum data exchange during FFTs selected (reduces bandwidth)


 total amount of memory used by VASP MPI-rank0  4216433. kBytes
=======================================================================

   base      :      30000. kBytes
   nonl-proj :     443298. kBytes
   fftplans  :     676185. kBytes
   grid      :    3042313. kBytes
   one-center:          9. kBytes
   wavefun   :      24628. kBytes
 
     INWAV:  cpu time    0.0000: real time    0.0000
 Broyden mixing: mesh for mixing (old mesh)
   NGX =181   NGY =181   NGZ =181
  (NGX  =756   NGY  =756   NGZ  =756)
  gives a total of ****** points

 initial charge density was supplied:
 charge density of overlapping atoms calculated
 number of electron      24.0000000 magnetization 
 keeping initial charge density in first step


--------------------------------------------------------------------------------------------------------


 Maximum index for augmentation-charges          1122 (set IRDMAX)


--------------------------------------------------------------------------------------------------------


 First call to EWALD:  gamma=   0.051
 Maximum number of real-space cells 3x 3x 3
 Maximum number of reciprocal cells 3x 3x 3

    FEWALD:  cpu time    0.0009: real time    0.0009


--------------------------------------- Iteration      1(   1)  ---------------------------------------


    POTLOK:  cpu time   13.0739: real time   13.0967
    SETDIJ:  cpu time    0.0407: real time    0.0414
     EDDAV:  cpu time   20.2950: real time   20.3438
       DOS:  cpu time    0.0033: real time    0.0034
    --------------------------------------------
      LOOP:  cpu time   33.4130: real time   33.4852

 eigenvalue-minimisations  :   128
 total energy-change (2. order) : 0.1611643E+03  (-0.4933617E+03)
 number of electron      24.0000000 magnetization 
 augmentation part       24.0000000 magnetization 

 Free energy of the ion-electron system (eV)
  ---------------------------------------------------
  alpha Z        PSCENC =         0.03994862
  Ewald energy   TEWEN  =      1260.92817660
  -Hartree energ DENC   =     -2415.70716824
  -exchange      EXHF   =         0.00000000
  -V(xc)+E(xc)   XCENC  =       100.35953920
  PAW double counting   =      1147.08281512    -1160.42820606
  entropy T*S    EENTRO =        -0.00000000
  eigenvalues    EBANDS =      -240.37843406
  atomic energy  EATOM  =      1469.26766065
  Solvation  Ediel_sol  =         0.00000000
  ---------------------------------------------------
  free energy    TOTEN  =       161.16433183 eV

  energy without entropy =      161.16433183  energy(sigma->0) =      161.16433183


--------------------------------------------------------------------------------------------------------




--------------------------------------- Iteration      1(   2)  ---------------------------------------


     EDDAV:  cpu time   20.3384: real time   20.3814
       DOS:  cpu time    0.0021: real time    0.0021
    --------------------------------------------
      LOOP:  cpu time   20.3405: real time   20.3835

 eigenvalue-minimisations  :   128
 total energy-change (2. order) :-0.1829311E+03  (-0.1829311E+03)
 number of electron      24.0000000 magnetization 
 augmentation part       24.0000000 magnetization 

 Free energy of the ion-electron system (eV)
  ---------------------------------------------------
  alpha Z        PSCENC =         0.03994862
  Ewald energy   TEWEN  =      1260.92817660
  -Hartree energ DENC   =     -2415.70716824
  -exchange      EXHF   =         0.00000000
  -V(xc)+E(xc)   XCENC  =       100.35953920
  PAW double counting   =      1147.08281512    -1160.42820606
  entropy T*S    EENTRO =        -0.00000000
  eigenvalues    EBANDS =      -423.30949388
  atomic energy  EATOM  =      1469.26766065
  Solvation  Ediel_sol  =         0.00000000
  ---------------------------------------------------
  free energy    TOTEN  =       -21.76672800 eV

  energy without entropy =      -21.76672800  energy(sigma->0) =      -21.76672800


--------------------------------------------------------------------------------------------------------




--------------------------------------- Iteration      1(   3)  ---------------------------------------


     EDDAV:  cpu time   12.2960: real time   12.3204
       DOS:  cpu time    0.0005: real time    0.0005
    --------------------------------------------
      LOOP:  cpu time   12.2965: real time   12.3209

 eigenvalue-minimisations  :    64
 total energy-change (2. order) :-0.1755363E+02  (-0.1755363E+02)
 number of electron      24.0000000 magnetization 
 augmentation part       24.0000000 magnetization 

 Free energy of the ion-electron system (eV)
  ---------------------------------------------------
  alpha Z        PSCENC =         0.03994862
  Ewald energy   TEWEN  =      1260.92817660
  -Hartree energ DENC   =     -2415.70716824
  -exchange      EXHF   =         0.00000000
  -V(xc)+E(xc)   XCENC  =       100.35953920
  PAW double counting   =      1147.08281512    -1160.42820606
  entropy T*S    EENTRO =        -0.00000000
  eigenvalues    EBANDS =      -440.86312403
  atomic energy  EATOM  =      1469.26766065
  Solvation  Ediel_sol  =         0.00000000
  ---------------------------------------------------
  free energy    TOTEN  =       -39.32035815 eV

  energy without entropy =      -39.32035815  energy(sigma->0) =      -39.32035815


--------------------------------------------------------------------------------------------------------




--------------------------------------- Iteration      1(   4)  ---------------------------------------


     EDDAV:  cpu time   20.3061: real time   20.3476
       DOS:  cpu time    0.0030: real time    0.0030
    --------------------------------------------
      LOOP:  cpu time   20.3090: real time   20.3505

 eigenvalue-minimisations  :   128
 total energy-change (2. order) :-0.1840845E+00  (-0.1840846E+00)
 number of electron      24.0000000 magnetization 
 augmentation part       24.0000000 magnetization 

 Free energy of the ion-electron system (eV)
  ---------------------------------------------------
  alpha Z        PSCENC =         0.03994862
  Ewald energy   TEWEN  =      1260.92817660
  -Hartree energ DENC   =     -2415.70716824
  -exchange      EXHF   =         0.00000000
  -V(xc)+E(xc)   XCENC  =       100.35953920
  PAW double counting   =      1147.08281512    -1160.42820606
  entropy T*S    EENTRO =        -0.00000000
  eigenvalues    EBANDS =      -441.04720858
  atomic energy  EATOM  =      1469.26766065
  Solvation  Ediel_sol  =         0.00000000
  ---------------------------------------------------
  free energy    TOTEN  =       -39.50444269 eV

  energy without entropy =      -39.50444269  energy(sigma->0) =      -39.50444269


--------------------------------------------------------------------------------------------------------




--------------------------------------- Iteration      1(   5)  ---------------------------------------


     EDDAV:  cpu time   12.3232: real time   12.3484
       DOS:  cpu time    0.0072: real time    0.0072
    CHARGE:  cpu time    5.3580: real time    5.3663
    MIXING:  cpu time    0.2245: real time    0.2313
    --------------------------------------------
      LOOP:  cpu time   17.9129: real time   17.9532

 eigenvalue-minimisations  :    64
 total energy-change (2. order) :-0.6236942E-04  (-0.6238286E-04)
 number of electron      23.9999999 magnetization 
 augmentation part        4.6574117 magnetization 

 Broyden mixing:
  rms(total) = 0.50150E+01    rms(broyden)= 0.50150E+01
  rms(prec ) = 0.50235E+01
  weight for this iteration     100.00

 Free energy of the ion-electron system (eV)
  ---------------------------------------------------
  alpha Z        PSCENC =         0.03994862
  Ewald energy   TEWEN  =      1260.92817660
  -Hartree energ DENC   =     -2415.70716824
  -exchange      EXHF   =         0.00000000
  -V(xc)+E(xc)   XCENC  =       100.35953920
  PAW double counting   =      1147.08281512    -1160.42820606
  entropy T*S    EENTRO =        -0.00000000
  eigenvalues    EBANDS =      -441.04727095
  atomic energy  EATOM  =      1469.26766065
  Solvation  Ediel_sol  =         0.00000000
  ---------------------------------------------------
  free energy    TOTEN  =       -39.50450506 eV

  energy without entropy =      -39.50450506  energy(sigma->0) =      -39.50450506


--------------------------------------------------------------------------------------------------------




--------------------------------------- Iteration      1(   6)  ---------------------------------------


    POTLOK:  cpu time   12.8063: real time   12.8306
    SETDIJ:  cpu time    0.0402: real time    0.0402
     EDDAV:  cpu time   16.3744: real time   16.4078
       DOS:  cpu time    0.0087: real time    0.0087
    CHARGE:  cpu time    5.2241: real time    5.2316
    MIXING:  cpu time    0.2496: real time    0.2524
    --------------------------------------------
      LOOP:  cpu time   34.7034: real time   34.7714

 eigenvalue-minimisations  :    96
 total energy-change (2. order) : 0.3805146E+01  (-0.2342357E+01)
 number of electron      23.9999999 magnetization 
 augmentation part        4.0483356 magnetization 

 Broyden mixing:
  rms(total) = 0.52645E+01    rms(broyden)= 0.52645E+01
  rms(prec ) = 0.52652E+01
  weight for this iteration     100.00

 eigenvalues of (default mixing * dielectric matrix)
  average eigenvalue GAMMA=   0.2225
  0.2225

 Free energy of the ion-electron system (eV)
  ---------------------------------------------------
  alpha Z        PSCENC =         0.03994862
  Ewald energy   TEWEN  =      1260.92817660
  -Hartree energ DENC   =     -2468.25016334
  -exchange      EXHF   =         0.00000000
  -V(xc)+E(xc)   XCENC  =       103.21427119
  PAW double counting   =      2273.95796517    -2289.88732360
  entropy T*S    EENTRO =        -0.00000000
  eigenvalues    EBANDS =      -384.96989432
  atomic energy  EATOM  =      1469.26766065
  Solvation  Ediel_sol  =         0.00000000
  ---------------------------------------------------
  free energy    TOTEN  =       -35.69935903 eV

  energy without entropy =      -35.69935903  energy(sigma->0) =      -35.69935903


--------------------------------------------------------------------------------------------------------




--------------------------------------- Iteration      1(   7)  ---------------------------------------


    POTLOK:  cpu time   12.8059: real time   12.8281
    SETDIJ:  cpu time    0.0401: real time    0.0401
     EDDAV:  cpu time   12.2615: real time   12.2957
       DOS:  cpu time    0.0036: real time    0.0036
    CHARGE:  cpu time    5.2909: real time    5.3074
    MIXING:  cpu time    0.2599: real time    0.2612
    --------------------------------------------
      LOOP:  cpu time   30.6620: real time   30.7361

 eigenvalue-minimisations  :    64
 total energy-change (2. order) : 0.7310470E-01  (-0.2837819E-01)
 number of electron      23.9999999 magnetization 
 augmentation part        4.0508788 magnetization 

 Broyden mixing:
  rms(total) = 0.47386E+01    rms(broyden)= 0.47386E+01
  rms(prec ) = 0.47393E+01
  weight for this iteration     100.00

 eigenvalues of (default mixing * dielectric matrix)
  average eigenvalue GAMMA=   1.8184
  0.8851  2.7516

 Free energy of the ion-electron system (eV)
  ---------------------------------------------------
  alpha Z        PSCENC =         0.03994862
  Ewald energy   TEWEN  =      1260.92817660
  -Hartree energ DENC   =     -2470.39783823
  -exchange      EXHF   =         0.00000000
  -V(xc)+E(xc)   XCENC  =       103.29606075
  PAW double counting   =      2565.89452973    -2581.72753928
  entropy T*S    EENTRO =        -0.00000000
  eigenvalues    EBANDS =      -382.92725316
  atomic energy  EATOM  =      1469.26766065
  Solvation  Ediel_sol  =         0.00000000
  ---------------------------------------------------
  free energy    TOTEN  =       -35.62625433 eV

  energy without entropy =      -35.62625433  energy(sigma->0) =      -35.62625433


--------------------------------------------------------------------------------------------------------




--------------------------------------- Iteration      1(   8)  ---------------------------------------


    POTLOK:  cpu time   12.8477: real time   12.8709
    SETDIJ:  cpu time    0.0401: real time    0.0401
     EDDAV:  cpu time   16.2750: real time   16.3131
       DOS:  cpu time    0.0063: real time    0.0063
    CHARGE:  cpu time    5.2616: real time    5.2711
    MIXING:  cpu time    0.2425: real time    0.2430
    --------------------------------------------
      LOOP:  cpu time   34.6733: real time   34.7445

 eigenvalue-minimisations  :    96
 total energy-change (2. order) : 0.3131340E+00  (-0.1962238E+00)
 number of electron      23.9999999 magnetization 
 augmentation part        4.0829662 magnetization 

 Broyden mixing:
  rms(total) = 0.11724E+01    rms(broyden)= 0.11724E+01
  rms(prec ) = 0.11732E+01
  weight for this iteration     100.00

 eigenvalues of (default mixing * dielectric matrix)
  average eigenvalue GAMMA=   1.3462
  2.5144  0.7621  0.7621

 Free energy of the ion-electron system (eV)
  ---------------------------------------------------
  alpha Z        PSCENC =         0.03994862
  Ewald energy   TEWEN  =      1260.92817660
  -Hartree energ DENC   =     -2494.49691528
  -exchange      EXHF   =         0.00000000
  -V(xc)+E(xc)   XCENC  =       104.31692800
  PAW double counting   =      6392.77712891    -6408.02757830
  entropy T*S    EENTRO =        -0.00000000
  eigenvalues    EBANDS =      -360.11846951
  atomic energy  EATOM  =      1469.26766065
  Solvation  Ediel_sol  =         0.00000000
  ---------------------------------------------------
  free energy    TOTEN  =       -35.31312032 eV

  energy without entropy =      -35.31312032  energy(sigma->0) =      -35.31312032


--------------------------------------------------------------------------------------------------------




--------------------------------------- Iteration      1(   9)  ---------------------------------------


    POTLOK:  cpu time   12.8016: real time   12.8238
    SETDIJ:  cpu time    0.0404: real time    0.0404
     EDDAV:  cpu time   20.2355: real time   20.2795
       DOS:  cpu time    0.0139: real time    0.0139
    CHARGE:  cpu time    5.3121: real time    5.3197
    MIXING:  cpu time    0.2621: real time    0.2626
    --------------------------------------------
      LOOP:  cpu time   38.6657: real time   38.7400

 eigenvalue-minimisations  :   128
 total energy-change (2. order) : 0.5609271E-01  (-0.2387944E-01)
 number of electron      23.9999999 magnetization 
 augmentation part        4.0465933 magnetization 

 Broyden mixing:
  rms(total) = 0.45497E+00    rms(broyden)= 0.45497E+00
  rms(prec ) = 0.45530E+00
  weight for this iteration     100.00

 eigenvalues of (default mixing * dielectric matrix)
  average eigenvalue GAMMA=   1.2909
  2.5684  0.8611  0.8611  0.8730

 Free energy of the ion-electron system (eV)
  ---------------------------------------------------
  alpha Z        PSCENC =         0.03994862
  Ewald energy   TEWEN  =      1260.92817660
  -Hartree energ DENC   =     -2494.33871574
  -exchange      EXHF   =         0.00000000
  -V(xc)+E(xc)   XCENC  =       104.31578311
  PAW double counting   =      6137.83100127    -6153.18284895
  entropy T*S    EENTRO =        -0.00000000
  eigenvalues    EBANDS =      -360.11803317
  atomic energy  EATOM  =      1469.26766065
  Solvation  Ediel_sol  =         0.00000000
  ---------------------------------------------------
  free energy    TOTEN  =       -35.25702761 eV

  energy without entropy =      -35.25702761  energy(sigma->0) =      -35.25702761


--------------------------------------------------------------------------------------------------------




--------------------------------------- Iteration      1(  10)  ---------------------------------------


    POTLOK:  cpu time   12.8964: real time   12.9242
    SETDIJ:  cpu time    0.0402: real time    0.0402
     EDDAV:  cpu time   16.2553: real time   16.2892
       DOS:  cpu time    0.0049: real time    0.0049
    CHARGE:  cpu time    5.2761: real time    5.2838
    MIXING:  cpu time    0.2501: real time    0.2506
    --------------------------------------------
      LOOP:  cpu time   34.7229: real time   34.7930

 eigenvalue-minimisations  :    96
 total energy-change (2. order) : 0.2652724E-02  (-0.1158933E-02)
 number of electron      23.9999999 magnetization 
 augmentation part        4.0425263 magnetization 

 Broyden mixing:
  rms(total) = 0.31512E+00    rms(broyden)= 0.31512E+00
  rms(prec ) = 0.31536E+00
  weight for this iteration     100.00

 eigenvalues of (default mixing * dielectric matrix)
  average eigenvalue GAMMA=   1.3740
  2.4456  1.3436  1.3436  0.8686  0.8686

 Free energy of the ion-electron system (eV)
  ---------------------------------------------------
  alpha Z        PSCENC =         0.03994862
  Ewald energy   TEWEN  =      1260.92817660
  -Hartree energ DENC   =     -2494.91024153
  -exchange      EXHF   =         0.00000000
  -V(xc)+E(xc)   XCENC  =       104.31425382
  PAW double counting   =      6218.14951664    -6233.42883678
  entropy T*S    EENTRO =        -0.00000000
  eigenvalues    EBANDS =      -359.61485291
  atomic energy  EATOM  =      1469.26766065
  Solvation  Ediel_sol  =         0.00000000
  ---------------------------------------------------
  free energy    TOTEN  =       -35.25437489 eV

  energy without entropy =      -35.25437489  energy(sigma->0) =      -35.25437489


--------------------------------------------------------------------------------------------------------




--------------------------------------- Iteration      1(  11)  ---------------------------------------


    POTLOK:  cpu time   12.8219: real time   12.8442
    SETDIJ:  cpu time    0.0401: real time    0.0401
     EDDAV:  cpu time   16.2323: real time   16.2734
       DOS:  cpu time    0.0040: real time    0.0040
    CHARGE:  cpu time    5.2679: real time    5.2752
    MIXING:  cpu time    0.2784: real time    0.2790
    --------------------------------------------
      LOOP:  cpu time   34.6447: real time   34.7160

 eigenvalue-minimisations  :    96
 total energy-change (2. order) :-0.1345828E-02  (-0.7888605E-03)
 number of electron      23.9999999 magnetization 
 augmentation part        4.0405559 magnetization 

 Broyden mixing:
  rms(total) = 0.89145E-01    rms(broyden)= 0.89145E-01
  rms(prec ) = 0.89448E-01
  weight for this iteration     100.00

 eigenvalues of (default mixing * dielectric matrix)
  average eigenvalue GAMMA=   1.3689
  2.2551  2.2551  0.8733  0.8733  1.0245  0.9323

 Free energy of the ion-electron system (eV)
  ---------------------------------------------------
  alpha Z        PSCENC =         0.03994862
  Ewald energy   TEWEN  =      1260.92817660
  -Hartree energ DENC   =     -2495.61213761
  -exchange      EXHF   =         0.00000000
  -V(xc)+E(xc)   XCENC  =       104.29733763
  PAW double counting   =      6205.68396705    -6220.88476949
  entropy T*S    EENTRO =        -0.00000000
  eigenvalues    EBANDS =      -358.97590417
  atomic energy  EATOM  =      1469.26766065
  Solvation  Ediel_sol  =         0.00000000
  ---------------------------------------------------
  free energy    TOTEN  =       -35.25572072 eV

  energy without entropy =      -35.25572072  energy(sigma->0) =      -35.25572072


--------------------------------------------------------------------------------------------------------




--------------------------------------- Iteration      1(  12)  ---------------------------------------


    POTLOK:  cpu time   12.9013: real time   12.9233
    SETDIJ:  cpu time    0.0403: real time    0.0403
     EDDAV:  cpu time   16.2849: real time   16.3186
       DOS:  cpu time    0.0082: real time    0.0082
    CHARGE:  cpu time    5.2293: real time    5.2371
    MIXING:  cpu time    0.2832: real time    0.2838
    --------------------------------------------
      LOOP:  cpu time   34.7472: real time   34.8112

 eigenvalue-minimisations  :    96
 total energy-change (2. order) :-0.1799253E-02  (-0.1773293E-03)
 number of electron      23.9999999 magnetization 
 augmentation part        4.0378873 magnetization 

 Broyden mixing:
  rms(total) = 0.11601E-01    rms(broyden)= 0.11601E-01
  rms(prec ) = 0.12831E-01
  weight for this iteration     100.00

 eigenvalues of (default mixing * dielectric matrix)
  average eigenvalue GAMMA=   1.3803
  2.4414  1.9280  1.7802  0.9301  0.9301  0.8263  0.8263

 Free energy of the ion-electron system (eV)
  ---------------------------------------------------
  alpha Z        PSCENC =         0.03994862
  Ewald energy   TEWEN  =      1260.92817660
  -Hartree energ DENC   =     -2496.48637701
  -exchange      EXHF   =         0.00000000
  -V(xc)+E(xc)   XCENC  =       104.30940549
  PAW double counting   =      6211.08021101    -6226.26106408
  entropy T*S    EENTRO =        -0.00000000
  eigenvalues    EBANDS =      -358.13548124
  atomic energy  EATOM  =      1469.26766065
  Solvation  Ediel_sol  =         0.00000000
  ---------------------------------------------------
  free energy    TOTEN  =       -35.25751997 eV

  energy without entropy =      -35.25751997  energy(sigma->0) =      -35.25751997


--------------------------------------------------------------------------------------------------------




--------------------------------------- Iteration      1(  13)  ---------------------------------------


    POTLOK:  cpu time   12.8463: real time   12.8690
    SETDIJ:  cpu time    0.0401: real time    0.0402
     EDDAV:  cpu time   16.2853: real time   16.3316
       DOS:  cpu time    0.0136: real time    0.0136
    CHARGE:  cpu time    5.3159: real time    5.3302
    MIXING:  cpu time    0.2933: real time    0.2939
    --------------------------------------------
      LOOP:  cpu time   34.7945: real time   34.8784

 eigenvalue-minimisations  :    96
 total energy-change (2. order) :-0.2061811E-02  (-0.4572872E-04)
 number of electron      23.9999999 magnetization 
 augmentation part        4.0367487 magnetization 

 Broyden mixing:
  rms(total) = 0.87072E-02    rms(broyden)= 0.87072E-02
  rms(prec ) = 0.96554E-02
  weight for this iteration     100.00

 eigenvalues of (default mixing * dielectric matrix)
  average eigenvalue GAMMA=   1.3835
  2.5815  2.3597  1.8409  0.9221  0.9221  0.8680  0.8680  0.7055

 Free energy of the ion-electron system (eV)
  ---------------------------------------------------
  alpha Z        PSCENC =         0.03994862
  Ewald energy   TEWEN  =      1260.92817660
  -Hartree energ DENC   =     -2497.44131984
  -exchange      EXHF   =         0.00000000
  -V(xc)+E(xc)   XCENC  =       104.32725399
  PAW double counting   =      6219.80476785    -6234.98411177
  entropy T*S    EENTRO =        -0.00000000
  eigenvalues    EBANDS =      -357.20195788
  atomic energy  EATOM  =      1469.26766065
  Solvation  Ediel_sol  =         0.00000000
  ---------------------------------------------------
  free energy    TOTEN  =       -35.25958178 eV

  energy without entropy =      -35.25958178  energy(sigma->0) =      -35.25958178


--------------------------------------------------------------------------------------------------------




--------------------------------------- Iteration      1(  14)  ---------------------------------------


    POTLOK:  cpu time   12.8963: real time   12.9182
    SETDIJ:  cpu time    0.0402: real time    0.0402
     EDDAV:  cpu time   16.3152: real time   16.3509
       DOS:  cpu time    0.0182: real time    0.0182
    CHARGE:  cpu time    5.2285: real time    5.2364
    MIXING:  cpu time    0.3103: real time    0.3109
    --------------------------------------------
      LOOP:  cpu time   34.8086: real time   34.8748

 eigenvalue-minimisations  :    96
 total energy-change (2. order) :-0.1900203E-02  (-0.2809951E-04)
 number of electron      23.9999999 magnetization 
 augmentation part        4.0363049 magnetization 

 Broyden mixing:
  rms(total) = 0.55673E-02    rms(broyden)= 0.55673E-02
  rms(prec ) = 0.63463E-02
  weight for this iteration     100.00

 eigenvalues of (default mixing * dielectric matrix)
  average eigenvalue GAMMA=   1.4587
  2.6116  2.6116  1.7594  1.7594  0.9139  0.9139  0.9385  0.9385  0.6819

 Free energy of the ion-electron system (eV)
  ---------------------------------------------------
  alpha Z        PSCENC =         0.03994862
  Ewald energy   TEWEN  =      1260.92817660
  -Hartree energ DENC   =     -2498.19532363
  -exchange      EXHF   =         0.00000000
  -V(xc)+E(xc)   XCENC  =       104.33625685
  PAW double counting   =      6216.97416534    -6232.15051253
  entropy T*S    EENTRO =        -0.00000000
  eigenvalues    EBANDS =      -356.46185387
  atomic energy  EATOM  =      1469.26766065
  Solvation  Ediel_sol  =         0.00000000
  ---------------------------------------------------
  free energy    TOTEN  =       -35.26148198 eV

  energy without entropy =      -35.26148198  energy(sigma->0) =      -35.26148198


--------------------------------------------------------------------------------------------------------




--------------------------------------- Iteration      1(  15)  ---------------------------------------


    POTLOK:  cpu time   12.8524: real time   12.8840
    SETDIJ:  cpu time    0.0402: real time    0.0402
     EDDAV:  cpu time   20.3334: real time   20.3754
       DOS:  cpu time    0.0098: real time    0.0098
    CHARGE:  cpu time    5.3329: real time    5.3407
    MIXING:  cpu time    0.2989: real time    0.2996
    --------------------------------------------
      LOOP:  cpu time   38.8675: real time   38.9496

 eigenvalue-minimisations  :   128
 total energy-change (2. order) :-0.1900918E-02  (-0.1081296E-04)
 number of electron      23.9999999 magnetization 
 augmentation part        4.0362608 magnetization 

 Broyden mixing:
  rms(total) = 0.35850E-02    rms(broyden)= 0.35850E-02
  rms(prec ) = 0.42600E-02
  weight for this iteration     100.00

 eigenvalues of (default mixing * dielectric matrix)
  average eigenvalue GAMMA=   1.6182
  3.3803  3.3803  2.0304  2.0304  0.9002  0.9002  0.9610  0.9610  0.9446  0.6935

 Free energy of the ion-electron system (eV)
  ---------------------------------------------------
  alpha Z        PSCENC =         0.03994862
  Ewald energy   TEWEN  =      1260.92817660
  -Hartree energ DENC   =     -2498.62234762
  -exchange      EXHF   =         0.00000000
  -V(xc)+E(xc)   XCENC  =       104.33809318
  PAW double counting   =      6212.49690733    -6227.67280366
  entropy T*S    EENTRO =        -0.00000000
  eigenvalues    EBANDS =      -356.03901799
  atomic energy  EATOM  =      1469.26766065
  Solvation  Ediel_sol  =         0.00000000
  ---------------------------------------------------
  free energy    TOTEN  =       -35.26338290 eV

  energy without entropy =      -35.26338290  energy(sigma->0) =      -35.26338290


--------------------------------------------------------------------------------------------------------




--------------------------------------- Iteration      1(  16)  ---------------------------------------


    POTLOK:  cpu time   12.8539: real time   12.8817
    SETDIJ:  cpu time    0.0404: real time    0.0404
     EDDAV:  cpu time   16.2143: real time   16.2474
       DOS:  cpu time    0.0042: real time    0.0042
    CHARGE:  cpu time    5.3356: real time    5.3437
    MIXING:  cpu time    0.3251: real time    0.3257
    --------------------------------------------
      LOOP:  cpu time   34.7735: real time   34.8431

 eigenvalue-minimisations  :    96
 total energy-change (2. order) :-0.3003672E-02  (-0.3187016E-04)
 number of electron      23.9999999 magnetization 
 augmentation part        4.0361708 magnetization 

 Broyden mixing:
  rms(total) = 0.19720E-02    rms(broyden)= 0.19720E-02
  rms(prec ) = 0.22725E-02
  weight for this iteration     100.00

 eigenvalues of (default mixing * dielectric matrix)
  average eigenvalue GAMMA=   1.7445
  5.7906  2.5899  2.5899  1.4964  1.4964  0.9426  0.9426  0.9258  0.9258  0.8057
  0.6838

 Free energy of the ion-electron system (eV)
  ---------------------------------------------------
  alpha Z        PSCENC =         0.03994862
  Ewald energy   TEWEN  =      1260.92817660
  -Hartree energ DENC   =     -2499.32746825
  -exchange      EXHF   =         0.00000000
  -V(xc)+E(xc)   XCENC  =       104.34151325
  PAW double counting   =      6208.11502399    -6223.29005990
  entropy T*S    EENTRO =        -0.00000000
  eigenvalues    EBANDS =      -355.34118153
  atomic energy  EATOM  =      1469.26766065
  Solvation  Ediel_sol  =         0.00000000
  ---------------------------------------------------
  free energy    TOTEN  =       -35.26638657 eV

  energy without entropy =      -35.26638657  energy(sigma->0) =      -35.26638657


--------------------------------------------------------------------------------------------------------




--------------------------------------- Iteration      1(  17)  ---------------------------------------


    POTLOK:  cpu time   12.8889: real time   12.9105
    SETDIJ:  cpu time    0.0404: real time    0.0404
     EDDAV:  cpu time   20.3874: real time   20.4303
       DOS:  cpu time    0.0032: real time    0.0032
    CHARGE:  cpu time    5.2331: real time    5.2404
    MIXING:  cpu time    0.3299: real time    0.3305
    --------------------------------------------
      LOOP:  cpu time   38.8830: real time   38.9553

 eigenvalue-minimisations  :   128
 total energy-change (2. order) :-0.1164606E-02  (-0.9843176E-05)
 number of electron      23.9999999 magnetization 
 augmentation part        4.0359724 magnetization 

 Broyden mixing:
  rms(total) = 0.27676E-02    rms(broyden)= 0.27676E-02
  rms(prec ) = 0.28499E-02
  weight for this iteration     100.00

 eigenvalues of (default mixing * dielectric matrix)
  average eigenvalue GAMMA=   1.7662
  5.8217  2.9690  2.5369  1.9238  1.8179  1.0435  0.9115  0.9115  0.9118  0.9118
  0.7177  0.7177

 Free energy of the ion-electron system (eV)
  ---------------------------------------------------
  alpha Z        PSCENC =         0.03994862
  Ewald energy   TEWEN  =      1260.92817660
  -Hartree energ DENC   =     -2499.65785755
  -exchange      EXHF   =         0.00000000
  -V(xc)+E(xc)   XCENC  =       104.34428745
  PAW double counting   =      6209.64557379    -6224.81965398
  entropy T*S    EENTRO =        -0.00000000
  eigenvalues    EBANDS =      -355.01568675
  atomic energy  EATOM  =      1469.26766065
  Solvation  Ediel_sol  =         0.00000000
  ---------------------------------------------------
  free energy    TOTEN  =       -35.26755118 eV

  energy without entropy =      -35.26755118  energy(sigma->0) =      -35.26755118


--------------------------------------------------------------------------------------------------------




--------------------------------------- Iteration      1(  18)  ---------------------------------------


    POTLOK:  cpu time   12.8791: real time   12.9019
    SETDIJ:  cpu time    0.0402: real time    0.0402
     EDDAV:  cpu time   20.2869: real time   20.3285
       DOS:  cpu time    0.0133: real time    0.0134
    CHARGE:  cpu time    5.2997: real time    5.3072
    MIXING:  cpu time    0.3332: real time    0.3338
    --------------------------------------------
      LOOP:  cpu time   38.8524: real time   38.9249

 eigenvalue-minimisations  :   128
 total energy-change (2. order) :-0.9046465E-03  (-0.3951252E-05)
 number of electron      23.9999999 magnetization 
 augmentation part        4.0358341 magnetization 

 Broyden mixing:
  rms(total) = 0.88412E-03    rms(broyden)= 0.88412E-03
  rms(prec ) = 0.99139E-03
  weight for this iteration     100.00

 eigenvalues of (default mixing * dielectric matrix)
  average eigenvalue GAMMA=   1.7655
  6.2023  3.4224  2.4627  2.1143  1.7315  1.0866  0.9535  0.9535  0.8882  0.8882
  0.6908  0.7785  0.7785

 Free energy of the ion-electron system (eV)
  ---------------------------------------------------
  alpha Z        PSCENC =         0.03994862
  Ewald energy   TEWEN  =      1260.92817660
  -Hartree energ DENC   =     -2499.70124934
  -exchange      EXHF   =         0.00000000
  -V(xc)+E(xc)   XCENC  =       104.34295581
  PAW double counting   =      6209.85958101    -6225.03279874
  entropy T*S    EENTRO =        -0.00000000
  eigenvalues    EBANDS =      -354.97273041
  atomic energy  EATOM  =      1469.26766065
  Solvation  Ediel_sol  =         0.00000000
  ---------------------------------------------------
  free energy    TOTEN  =       -35.26845582 eV

  energy without entropy =      -35.26845582  energy(sigma->0) =      -35.26845582


--------------------------------------------------------------------------------------------------------




--------------------------------------- Iteration      1(  19)  ---------------------------------------


    POTLOK:  cpu time   12.9180: real time   12.9397
    SETDIJ:  cpu time    0.0402: real time    0.0402
     EDDAV:  cpu time   20.2751: real time   20.3226
       DOS:  cpu time    0.0092: real time    0.0092
    CHARGE:  cpu time    5.2140: real time    5.2216
    MIXING:  cpu time    0.3649: real time    0.3657
    --------------------------------------------
      LOOP:  cpu time   38.8214: real time   38.8989

 eigenvalue-minimisations  :   128
 total energy-change (2. order) :-0.6384786E-03  (-0.2925603E-05)
 number of electron      23.9999999 magnetization 
 augmentation part        4.0358655 magnetization 

 Broyden mixing:
  rms(total) = 0.76714E-03    rms(broyden)= 0.76714E-03
  rms(prec ) = 0.80558E-03
  weight for this iteration     100.00

 eigenvalues of (default mixing * dielectric matrix)
  average eigenvalue GAMMA=   1.9336
  8.0003  3.8325  2.3692  2.3692  1.7322  1.7322  1.1280  0.9231  0.9231  0.8713
  0.8713  0.8546  0.7071  0.7559

 Free energy of the ion-electron system (eV)
  ---------------------------------------------------
  alpha Z        PSCENC =         0.03994862
  Ewald energy   TEWEN  =      1260.92817660
  -Hartree energ DENC   =     -2499.74766656
  -exchange      EXHF   =         0.00000000
  -V(xc)+E(xc)   XCENC  =       104.34153241
  PAW double counting   =      6209.55255310    -6224.72519512
  entropy T*S    EENTRO =        -0.00000000
  eigenvalues    EBANDS =      -354.92610399
  atomic energy  EATOM  =      1469.26766065
  Solvation  Ediel_sol  =         0.00000000
  ---------------------------------------------------
  free energy    TOTEN  =       -35.26909430 eV

  energy without entropy =      -35.26909430  energy(sigma->0) =      -35.26909430


--------------------------------------------------------------------------------------------------------




--------------------------------------- Iteration      1(  20)  ---------------------------------------


    POTLOK:  cpu time   12.8834: real time   12.9070
    SETDIJ:  cpu time    0.0402: real time    0.0402
     EDDAV:  cpu time   20.2907: real time   20.3363
       DOS:  cpu time    0.0080: real time    0.0080
    CHARGE:  cpu time    5.3159: real time    5.3231
    MIXING:  cpu time    0.3611: real time    0.3618
    --------------------------------------------
      LOOP:  cpu time   38.8993: real time   38.9764

 eigenvalue-minimisations  :   128
 total energy-change (2. order) :-0.2964617E-03  (-0.8556341E-06)
 number of electron      23.9999999 magnetization 
 augmentation part        4.0358642 magnetization 

 Broyden mixing:
  rms(total) = 0.35150E-03    rms(broyden)= 0.35150E-03
  rms(prec ) = 0.37864E-03
  weight for this iteration     100.00

 eigenvalues of (default mixing * dielectric matrix)
  average eigenvalue GAMMA=   2.0029
  8.3235  4.5178  2.4712  2.4712  2.2843  1.6049  1.1766  1.1766  0.9596  0.9596
  0.8891  0.8891  0.7006  0.8101  0.8101

 Free energy of the ion-electron system (eV)
  ---------------------------------------------------
  alpha Z        PSCENC =         0.03994862
  Ewald energy   TEWEN  =      1260.92817660
  -Hartree energ DENC   =     -2499.78531911
  -exchange      EXHF   =         0.00000000
  -V(xc)+E(xc)   XCENC  =       104.34101696
  PAW double counting   =      6209.12680892    -6224.29941444
  entropy T*S    EENTRO =        -0.00000000
  eigenvalues    EBANDS =      -354.88826895
  atomic energy  EATOM  =      1469.26766065
  Solvation  Ediel_sol  =         0.00000000
  ---------------------------------------------------
  free energy    TOTEN  =       -35.26939077 eV

  energy without entropy =      -35.26939077  energy(sigma->0) =      -35.26939077


--------------------------------------------------------------------------------------------------------




--------------------------------------- Iteration      1(  21)  ---------------------------------------


    POTLOK:  cpu time   12.9124: real time   12.9353
    SETDIJ:  cpu time    0.0402: real time    0.0402
     EDDAV:  cpu time   20.2801: real time   20.3293
       DOS:  cpu time    0.0134: real time    0.0134
    CHARGE:  cpu time    5.2282: real time    5.2351
    MIXING:  cpu time    0.3825: real time    0.3833
    --------------------------------------------
      LOOP:  cpu time   38.8569: real time   38.9367

 eigenvalue-minimisations  :   128
 total energy-change (2. order) :-0.2030397E-03  (-0.6269585E-06)
 number of electron      23.9999999 magnetization 
 augmentation part        4.0358465 magnetization 

 Broyden mixing:
  rms(total) = 0.12978E-03    rms(broyden)= 0.12978E-03
  rms(prec ) = 0.14733E-03
  weight for this iteration     100.00

 eigenvalues of (default mixing * dielectric matrix)
  average eigenvalue GAMMA=   2.0674
  8.6464  5.1625  3.0156  2.4584  2.0782  2.0782  1.5100  1.1997  0.9341  0.9341
  0.8783  0.8783  0.9678  0.7019  0.8171  0.8171

 Free energy of the ion-electron system (eV)
  ---------------------------------------------------
  alpha Z        PSCENC =         0.03994862
  Ewald energy   TEWEN  =      1260.92817660
  -Hartree energ DENC   =     -2499.78330293
  -exchange      EXHF   =         0.00000000
  -V(xc)+E(xc)   XCENC  =       104.34058486
  PAW double counting   =      6209.27689522    -6224.44977482
  entropy T*S    EENTRO =        -0.00000000
  eigenvalues    EBANDS =      -354.88978201
  atomic energy  EATOM  =      1469.26766065
  Solvation  Ediel_sol  =         0.00000000
  ---------------------------------------------------
  free energy    TOTEN  =       -35.26959381 eV

  energy without entropy =      -35.26959381  energy(sigma->0) =      -35.26959381


--------------------------------------------------------------------------------------------------------




--------------------------------------- Iteration      1(  22)  ---------------------------------------


    POTLOK:  cpu time   12.8197: real time   12.8434
    SETDIJ:  cpu time    0.0404: real time    0.0404
     EDDAV:  cpu time   20.2619: real time   20.3152
       DOS:  cpu time    0.0256: real time    0.0256
    CHARGE:  cpu time    5.2859: real time    5.2965
    MIXING:  cpu time    0.4066: real time    0.4075
    --------------------------------------------
      LOOP:  cpu time   38.8400: real time   38.9286

 eigenvalue-minimisations  :   128
 total energy-change (2. order) :-0.7822403E-04  (-0.9948820E-07)
 number of electron      23.9999999 magnetization 
 augmentation part        4.0358552 magnetization 

 Broyden mixing:
  rms(total) = 0.18205E-03    rms(broyden)= 0.18205E-03
  rms(prec ) = 0.18579E-03
  weight for this iteration     100.00

 eigenvalues of (default mixing * dielectric matrix)
  average eigenvalue GAMMA=   2.1313
  9.1303  5.4657  3.4247  2.6876  2.4876  2.1628  1.6327  1.1305  1.1305  0.9515
  0.9515  0.8826  0.8826  0.9778  0.7014  0.8164  0.8164

 Free energy of the ion-electron system (eV)
  ---------------------------------------------------
  alpha Z        PSCENC =         0.03994862
  Ewald energy   TEWEN  =      1260.92817660
  -Hartree energ DENC   =     -2499.78474629
  -exchange      EXHF   =         0.00000000
  -V(xc)+E(xc)   XCENC  =       104.34042984
  PAW double counting   =      6209.24231875    -6224.41525863
  entropy T*S    EENTRO =        -0.00000000
  eigenvalues    EBANDS =      -354.88820157
  atomic energy  EATOM  =      1469.26766065
  Solvation  Ediel_sol  =         0.00000000
  ---------------------------------------------------
  free energy    TOTEN  =       -35.26967203 eV

  energy without entropy =      -35.26967203  energy(sigma->0) =      -35.26967203


--------------------------------------------------------------------------------------------------------




--------------------------------------- Iteration      1(  23)  ---------------------------------------


    POTLOK:  cpu time   12.8738: real time   12.9049
    SETDIJ:  cpu time    0.0381: real time    0.0402
     EDDAV:  cpu time   16.2055: real time   16.2520
       DOS:  cpu time    0.0085: real time    0.0085
    CHARGE:  cpu time    5.2119: real time    5.2259
    MIXING:  cpu time    0.4137: real time    0.4145
    --------------------------------------------
      LOOP:  cpu time   34.7515: real time   34.8460

 eigenvalue-minimisations  :    96
 total energy-change (2. order) :-0.3779506E-04  (-0.1757693E-07)
 number of electron      23.9999999 magnetization 
 augmentation part        4.0358593 magnetization 

 Broyden mixing:
  rms(total) = 0.57328E-04    rms(broyden)= 0.57328E-04
  rms(prec ) = 0.60221E-04
  weight for this iteration     100.00

 eigenvalues of (default mixing * dielectric matrix)
  average eigenvalue GAMMA=   2.1717
  9.0805  5.9962  4.0238  2.5472  2.5472  2.0796  2.0796  1.5867  1.1923  0.9434
  0.9434  0.8831  0.8831  0.9879  0.9879  0.7014  0.8135  0.8135

 Free energy of the ion-electron system (eV)
  ---------------------------------------------------
  alpha Z        PSCENC =         0.03994862
  Ewald energy   TEWEN  =      1260.92817660
  -Hartree energ DENC   =     -2499.78867941
  -exchange      EXHF   =         0.00000000
  -V(xc)+E(xc)   XCENC  =       104.34042295
  PAW double counting   =      6209.16178147    -6224.33479320
  entropy T*S    EENTRO =        -0.00000000
  eigenvalues    EBANDS =      -354.88422750
  atomic energy  EATOM  =      1469.26766065
  Solvation  Ediel_sol  =         0.00000000
  ---------------------------------------------------
  free energy    TOTEN  =       -35.26970982 eV

  energy without entropy =      -35.26970982  energy(sigma->0) =      -35.26970982


--------------------------------------------------------------------------------------------------------




--------------------------------------- Iteration      1(  24)  ---------------------------------------


    POTLOK:  cpu time   12.8330: real time   12.8548
    SETDIJ:  cpu time    0.0402: real time    0.0402
     EDDAV:  cpu time   20.3299: real time   20.3912
       DOS:  cpu time    0.0070: real time    0.0070
    CHARGE:  cpu time    5.3168: real time    5.3264
    MIXING:  cpu time    0.4253: real time    0.4262
    --------------------------------------------
      LOOP:  cpu time   38.9522: real time   39.0457

 eigenvalue-minimisations  :   128
 total energy-change (2. order) :-0.1482362E-04  (-0.6618507E-08)
 number of electron      23.9999999 magnetization 
 augmentation part        4.0358592 magnetization 

 Broyden mixing:
  rms(total) = 0.27667E-04    rms(broyden)= 0.27667E-04
  rms(prec ) = 0.29450E-04
  weight for this iteration     100.00

 eigenvalues of (default mixing * dielectric matrix)
  average eigenvalue GAMMA=   2.2065
  9.4374  6.3296  4.2924  2.7372  2.7372  2.2714  2.2714  1.5796  1.2504  0.8837
  0.8837  0.9471  0.9471  1.0348  1.0348  0.9503  0.7015  0.8164  0.8164

 Free energy of the ion-electron system (eV)
  ---------------------------------------------------
  alpha Z        PSCENC =         0.03994862
  Ewald energy   TEWEN  =      1260.92817660
  -Hartree energ DENC   =     -2499.78924876
  -exchange      EXHF   =         0.00000000
  -V(xc)+E(xc)   XCENC  =       104.34041911
  PAW double counting   =      6209.18366196    -6224.35664194
  entropy T*S    EENTRO =        -0.00000000
  eigenvalues    EBANDS =      -354.88370089
  atomic energy  EATOM  =      1469.26766065
  Solvation  Ediel_sol  =         0.00000000
  ---------------------------------------------------
  free energy    TOTEN  =       -35.26972465 eV

  energy without entropy =      -35.26972465  energy(sigma->0) =      -35.26972465


--------------------------------------------------------------------------------------------------------




--------------------------------------- Iteration      1(  25)  ---------------------------------------


    POTLOK:  cpu time   12.8525: real time   12.8769
    SETDIJ:  cpu time    0.0402: real time    0.0403
     EDDAV:  cpu time   12.2676: real time   12.3045
       DOS:  cpu time    0.0002: real time    0.0002
    CHARGE:  cpu time    5.1766: real time    5.1882
    MIXING:  cpu time    0.4938: real time    0.4947
    --------------------------------------------
      LOOP:  cpu time   30.8309: real time   30.9047

 eigenvalue-minimisations  :    64
 total energy-change (2. order) :-0.6915875E-05  (-0.2996712E-08)
 number of electron      23.9999999 magnetization 
 augmentation part        4.0358577 magnetization 

 Broyden mixing:
  rms(total) = 0.29115E-04    rms(broyden)= 0.29115E-04
  rms(prec ) = 0.29636E-04
  weight for this iteration     100.00

 eigenvalues of (default mixing * dielectric matrix)
  average eigenvalue GAMMA=   2.2117
  9.4625  6.6239  4.5859  3.0961  2.5091  2.5091  2.1144  1.7577  1.5270  1.2087
  0.9427  0.9427  0.8833  0.8833  0.9927  0.9927  0.7015  0.8223  0.8223  0.8556

 Free energy of the ion-electron system (eV)
  ---------------------------------------------------
  alpha Z        PSCENC =         0.03994862
  Ewald energy   TEWEN  =      1260.92817660
  -Hartree energ DENC   =     -2499.79014808
  -exchange      EXHF   =         0.00000000
  -V(xc)+E(xc)   XCENC  =       104.34042226
  PAW double counting   =      6209.20285662    -6224.37580625
  entropy T*S    EENTRO =        -0.00000000
  eigenvalues    EBANDS =      -354.88284197
  atomic energy  EATOM  =      1469.26766065
  Solvation  Ediel_sol  =         0.00000000
  ---------------------------------------------------
  free energy    TOTEN  =       -35.26973156 eV

  energy without entropy =      -35.26973156  energy(sigma->0) =      -35.26973156


--------------------------------------------------------------------------------------------------------




--------------------------------------- Iteration      1(  26)  ---------------------------------------


    POTLOK:  cpu time   12.8014: real time   12.8251
    SETDIJ:  cpu time    0.0403: real time    0.0403
     EDDAV:  cpu time   20.2998: real time   20.3492
       DOS:  cpu time    0.0180: real time    0.0180
    CHARGE:  cpu time    5.2698: real time    5.2862
    MIXING:  cpu time    0.5077: real time    0.5113
    --------------------------------------------
      LOOP:  cpu time   38.9370: real time   39.0302

 eigenvalue-minimisations  :   128
 total energy-change (2. order) :-0.2611257E-05  (-0.2467814E-08)
 number of electron      23.9999999 magnetization 
 augmentation part        4.0358579 magnetization 

 Broyden mixing:
  rms(total) = 0.10535E-04    rms(broyden)= 0.10535E-04
  rms(prec ) = 0.11130E-04
  weight for this iteration     100.00

 eigenvalues of (default mixing * dielectric matrix)
  average eigenvalue GAMMA=   2.2359
  9.5429  6.8394  4.8105  3.6946  2.6397  2.5478  2.0894  2.0894  1.5925  1.2149
  0.7015  0.9486  0.9486  0.8826  0.8826  1.0015  1.0015  0.8146  0.8146  0.9479
  0.9479

 Free energy of the ion-electron system (eV)
  ---------------------------------------------------
  alpha Z        PSCENC =         0.03994862
  Ewald energy   TEWEN  =      1260.92817660
  -Hartree energ DENC   =     -2499.79018558
  -exchange      EXHF   =         0.00000000
  -V(xc)+E(xc)   XCENC  =       104.34041753
  PAW double counting   =      6209.20068980    -6224.37363072
  entropy T*S    EENTRO =        -0.00000000
  eigenvalues    EBANDS =      -354.88281108
  atomic energy  EATOM  =      1469.26766065
  Solvation  Ediel_sol  =         0.00000000
  ---------------------------------------------------
  free energy    TOTEN  =       -35.26973417 eV

  energy without entropy =      -35.26973417  energy(sigma->0) =      -35.26973417


--------------------------------------------------------------------------------------------------------




--------------------------------------- Iteration      1(  27)  ---------------------------------------


    POTLOK:  cpu time   12.8656: real time   12.8875
    SETDIJ:  cpu time    0.0402: real time    0.0402
     EDDAV:  cpu time   12.2289: real time   12.2604
       DOS:  cpu time    0.0093: real time    0.0093
    CHARGE:  cpu time    5.2428: real time    5.2497
    MIXING:  cpu time    0.4994: real time    0.5004
    --------------------------------------------
      LOOP:  cpu time   30.8863: real time   30.9475

 eigenvalue-minimisations  :    64
 total energy-change (2. order) :-0.2027594E-05  (-0.2789015E-08)
 number of electron      23.9999999 magnetization 
 augmentation part        4.0358572 magnetization 

 Broyden mixing:
  rms(total) = 0.96008E-05    rms(broyden)= 0.96008E-05
  rms(prec ) = 0.97830E-05
  weight for this iteration     100.00

 eigenvalues of (default mixing * dielectric matrix)
  average eigenvalue GAMMA=   2.2574
  9.5701  7.1887  5.2681  3.8578  2.6101  2.6101  2.3876  2.1560  1.5898  1.4688
  1.1763  0.9439  0.9439  0.8828  0.8828  1.0444  0.9630  0.9630  0.7015  0.8205
  0.8205  0.8133

 Free energy of the ion-electron system (eV)
  ---------------------------------------------------
  alpha Z        PSCENC =         0.03994862
  Ewald energy   TEWEN  =      1260.92817660
  -Hartree energ DENC   =     -2499.79037180
  -exchange      EXHF   =         0.00000000
  -V(xc)+E(xc)   XCENC  =       104.34041880
  PAW double counting   =      6209.20576157    -6224.37870227
  entropy T*S    EENTRO =        -0.00000000
  eigenvalues    EBANDS =      -354.88262837
  atomic energy  EATOM  =      1469.26766065
  Solvation  Ediel_sol  =         0.00000000
  ---------------------------------------------------
  free energy    TOTEN  =       -35.26973620 eV

  energy without entropy =      -35.26973620  energy(sigma->0) =      -35.26973620


--------------------------------------------------------------------------------------------------------




--------------------------------------- Iteration      1(  28)  ---------------------------------------


    POTLOK:  cpu time   12.7741: real time   12.7979
    SETDIJ:  cpu time    0.0402: real time    0.0402
     EDDAV:  cpu time   16.2328: real time   16.2750
       DOS:  cpu time    0.0136: real time    0.0136
    CHARGE:  cpu time    5.3392: real time    5.3461
    MIXING:  cpu time    0.5204: real time    0.5214
    --------------------------------------------
      LOOP:  cpu time   34.9202: real time   34.9943

 eigenvalue-minimisations  :    96
 total energy-change (2. order) :-0.6238529E-06  (-0.2298226E-08)
 number of electron      23.9999999 magnetization 
 augmentation part        4.0358573 magnetization 

 Broyden mixing:
  rms(total) = 0.40731E-05    rms(broyden)= 0.40731E-05
  rms(prec ) = 0.42337E-05
  weight for this iteration     100.00

 eigenvalues of (default mixing * dielectric matrix)
  average eigenvalue GAMMA=   2.2369
  9.6219  7.2308  5.3811  3.8824  2.7207  2.7207  2.3817  2.1889  1.8592  1.5831
  1.1765  0.9469  0.9469  0.8833  0.8833  0.7015  1.0557  0.8169  0.8169  0.9228
  0.9228  0.9025  0.9025

 Free energy of the ion-electron system (eV)
  ---------------------------------------------------
  alpha Z        PSCENC =         0.03994862
  Ewald energy   TEWEN  =      1260.92817660
  -Hartree energ DENC   =     -2499.79042162
  -exchange      EXHF   =         0.00000000
  -V(xc)+E(xc)   XCENC  =       104.34041750
  PAW double counting   =      6209.20206609    -6224.37501430
  entropy T*S    EENTRO =        -0.00000000
  eigenvalues    EBANDS =      -354.88257036
  atomic energy  EATOM  =      1469.26766065
  Solvation  Ediel_sol  =         0.00000000
  ---------------------------------------------------
  free energy    TOTEN  =       -35.26973683 eV

  energy without entropy =      -35.26973683  energy(sigma->0) =      -35.26973683


--------------------------------------------------------------------------------------------------------




--------------------------------------- Iteration      1(  29)  ---------------------------------------


    POTLOK:  cpu time   12.8629: real time   12.8891
    SETDIJ:  cpu time    0.0402: real time    0.0402
     EDDAV:  cpu time   20.2687: real time   20.3159
       DOS:  cpu time    0.0124: real time    0.0124
    CHARGE:  cpu time    5.2499: real time    5.2637
    MIXING:  cpu time    0.5355: real time    0.5366
    --------------------------------------------
      LOOP:  cpu time   38.9697: real time   39.0579

 eigenvalue-minimisations  :   128
 total energy-change (2. order) :-0.3443383E-06  (-0.1990326E-08)
 number of electron      23.9999999 magnetization 
 augmentation part        4.0358577 magnetization 

 Broyden mixing:
  rms(total) = 0.18878E-05    rms(broyden)= 0.18878E-05
  rms(prec ) = 0.20263E-05
  weight for this iteration     100.00

 eigenvalues of (default mixing * dielectric matrix)
  average eigenvalue GAMMA=   2.2733
  9.5373  7.5837  5.6371  4.2275  3.2653  2.4296  2.4118  2.4118  1.9204  1.6290
  1.6290  1.1497  1.1497  0.9453  0.9453  0.8831  0.8831  0.7015  0.9638  0.9638
  0.8106  0.8106  0.8351  0.8351

 Free energy of the ion-electron system (eV)
  ---------------------------------------------------
  alpha Z        PSCENC =         0.03994862
  Ewald energy   TEWEN  =      1260.92817660
  -Hartree energ DENC   =     -2499.79040083
  -exchange      EXHF   =         0.00000000
  -V(xc)+E(xc)   XCENC  =       104.34041482
  PAW double counting   =      6209.19886676    -6224.37181709
  entropy T*S    EENTRO =        -0.00000000
  eigenvalues    EBANDS =      -354.88258670
  atomic energy  EATOM  =      1469.26766065
  Solvation  Ediel_sol  =         0.00000000
  ---------------------------------------------------
  free energy    TOTEN  =       -35.26973717 eV

  energy without entropy =      -35.26973717  energy(sigma->0) =      -35.26973717


--------------------------------------------------------------------------------------------------------




--------------------------------------- Iteration      1(  30)  ---------------------------------------


    POTLOK:  cpu time   12.8131: real time   12.8366
    SETDIJ:  cpu time    0.0403: real time    0.0403
     EDDAV:  cpu time   12.2367: real time   12.2709
       DOS:  cpu time    0.0117: real time    0.0117
    CHARGE:  cpu time    5.2702: real time    5.2792
    MIXING:  cpu time    0.5679: real time    0.5707
    --------------------------------------------
      LOOP:  cpu time   30.9399: real time   31.0094

 eigenvalue-minimisations  :    64
 total energy-change (2. order) :-0.2399283E-06  (-0.1609941E-08)
 number of electron      23.9999999 magnetization 
 augmentation part        4.0358577 magnetization 

 Broyden mixing:
  rms(total) = 0.23315E-05    rms(broyden)= 0.23315E-05
  rms(prec ) = 0.23656E-05
  weight for this iteration     100.00

 eigenvalues of (default mixing * dielectric matrix)
  average eigenvalue GAMMA=   2.2751
  9.6626  7.7881  5.8665  4.5729  3.3089  2.5789  2.5789  2.3228  2.1061  1.6917
  1.6023  1.1124  1.1124  0.7015  0.9440  0.9440  0.8839  0.8839  0.9068  0.9068
  1.0188  0.9561  0.8165  0.8165  0.7944

 Free energy of the ion-electron system (eV)
  ---------------------------------------------------
  alpha Z        PSCENC =         0.03994862
  Ewald energy   TEWEN  =      1260.92817660
  -Hartree energ DENC   =     -2499.79037703
  -exchange      EXHF   =         0.00000000
  -V(xc)+E(xc)   XCENC  =       104.34041375
  PAW double counting   =      6209.19871986    -6224.37167049
  entropy T*S    EENTRO =        -0.00000000
  eigenvalues    EBANDS =      -354.88260936
  atomic energy  EATOM  =      1469.26766065
  Solvation  Ediel_sol  =         0.00000000
  ---------------------------------------------------
  free energy    TOTEN  =       -35.26973741 eV

  energy without entropy =      -35.26973741  energy(sigma->0) =      -35.26973741


--------------------------------------------------------------------------------------------------------




--------------------------------------- Iteration      1(  31)  ---------------------------------------


    POTLOK:  cpu time   12.8274: real time   12.8517
    SETDIJ:  cpu time    0.0403: real time    0.0403
     EDDAV:  cpu time   16.2534: real time   16.3078
       DOS:  cpu time    0.0098: real time    0.0098
    --------------------------------------------
      LOOP:  cpu time   29.1308: real time   29.2095

 eigenvalue-minimisations  :    96
 total energy-change (2. order) :-0.7680910E-07  (-0.1325327E-08)
 number of electron      23.9999999 magnetization 
 augmentation part        4.0358577 magnetization 

 Free energy of the ion-electron system (eV)
  ---------------------------------------------------
  alpha Z        PSCENC =         0.03994862
  Ewald energy   TEWEN  =      1260.92817660
  -Hartree energ DENC   =     -2499.79038756
  -exchange      EXHF   =         0.00000000
  -V(xc)+E(xc)   XCENC  =       104.34041332
  PAW double counting   =      6209.19899642    -6224.37194678
  entropy T*S    EENTRO =        -0.00000000
  eigenvalues    EBANDS =      -354.88259875
  atomic energy  EATOM  =      1469.26766065
  Solvation  Ediel_sol  =         0.00000000
  ---------------------------------------------------
  free energy    TOTEN  =       -35.26973749 eV

  energy without entropy =      -35.26973749  energy(sigma->0) =      -35.26973749


--------------------------------------------------------------------------------------------------------




 average (electrostatic) potential at core
  the test charge radii are     0.6256  0.8471  0.8742
  (the norm of the test charge is              1.0000)
       1 -41.2415       2 -41.2263       3 -88.3580       4 -92.2052       5 -92.3744
       6 -90.5004
 
 
 
 E-fermi :  -6.9341     XC(G=0):  -0.0357     alpha+bet : -0.0095


 k-point     1 :       0.0000    0.0000    0.0000
  band No.  band energies     occupation 
      1     -28.9306      2.00000
      2     -27.8643      2.00000
      3     -25.3380      2.00000
      4     -13.3430      2.00000
      5     -13.0067      2.00000
      6     -12.2335      2.00000
      7     -12.2258      2.00000
      8     -12.1085      2.00000
      9      -8.6020      2.00000
     10      -8.5699      2.00000
     11      -8.1793      2.00000
     12      -7.0398      2.00000
     13      -1.0358      0.00000
     14      -0.4228      0.00000
     15      -0.1527      0.00000
     16      -0.1161      0.00000
     17       0.0032      0.00000
     18       0.0958      0.00000
     19       0.1123      0.00000
     20       0.1184      0.00000
     21       0.1199      0.00000
     22       0.1272      0.00000
     23       0.1473      0.00000
     24       0.1831      0.00000
     25       0.2180      0.00000
     26       0.2395      0.00000
     27       0.2400      0.00000
     28       0.2404      0.00000
     29       0.2415      0.00000
     30       0.2431      0.00000
     31       0.2437      0.00000
     32       0.2457      0.00000


--------------------------------------------------------------------------------------------------------


 soft charge-density along one line, spin component            1
         0         1         2         3         4         5         6         7         8         9
 total charge-density along one line
 
 pseudopotential strength for first ion, spin component:            1
 -2.337  -3.708   0.013  -0.020   0.001
 -3.708  -5.718   0.026  -0.041   0.001
  0.013   0.026  -0.118  -0.014   0.001
 -0.020  -0.041  -0.014  -0.106  -0.001
  0.001   0.001   0.001  -0.001  -0.129
 total augmentation occupancy for first ion, spin component:            1
  2.832  -0.513  -0.600   0.857  -0.032
 -0.513   0.214   0.084  -0.093   0.004
 -0.600   0.084   0.184  -0.166   0.005
  0.857  -0.093  -0.166   0.307  -0.009
 -0.032   0.004   0.005  -0.009   0.103


------------------------ aborting loop because EDIFF is reached ----------------------------------------



 DIPCOR: dipole corrections for dipol
 direction  1 min pos   354, direction  2 min pos   392, direction  3 min pos   374,
 dipolmoment          -0.014029     -0.446777      0.016040 electrons x Angstroem
 Tr[quadrupol]         9.855526

 energy correction for charged system         0.000000 eV
 dipol+quadrupol energy correction            0.000141 eV
 added-field ion interaction          0.000000 eV  (added to PSCEN)

 
  *************** adding dipol energy to TOTEN NOW **************** 
    CHARGE:  cpu time    5.2167: real time    5.2291
    FORLOC:  cpu time    0.5575: real time    0.5583
    FORNL :  cpu time    0.4792: real time    0.4801
    STRESS:  cpu time   12.5300: real time   12.5555
    FORHAR:  cpu time    3.3225: real time    3.3285
    MIXING:  cpu time    0.5791: real time    0.5803
    OFIELD:  cpu time    0.0000: real time    0.0000

  Hirshfeld charges:
            ion         q(e)     
   ------------------------------
      1     H           0.142
      2     H           0.141
      3     C           0.279
      4     O          -0.125
      5     O          -0.169
      6     O          -0.268

  Hirshfeld-I charges:
            ion         q(e)        dq(e)    
   ------------------------------------------
      1     H           0.441      0.191E-04
      2     H           0.439      0.192E-04
      3     C           0.803     -0.148E-04
      4     O          -0.341      0.133E-04
      5     O          -0.442      0.640E-05
      6     O          -0.900     -0.432E-04

   Hirshfeld-I converged in  21 cycles. Convergence criterion |dq|< 0.500E-04 e

  Atomic reference data used in the T-S method for vdW correction:
            C6at              R0at           ALPHAat      REFSTATE
            (au)              (au)            (au)                
   ---------------------------------------------------------------
   H           6.500          3.099          4.500         0
   C          46.600          3.590         12.000         0
   O          15.600          3.194          5.400         0

  Tkatchenko/Scheffler method for vdW energy calculation
  ---------------------------------------------------------------------------------------------

  Parameters of vdW forcefield:
            C6ts              R0ts           ALPHAts        RELVOL
            (au)              (au)            (au)                
   ---------------------------------------------------------------
   H           0.687          2.131          1.463          0.32501068
   H           0.685          2.130          1.461          0.32473561
   C           9.846          2.771          5.516          0.45966110
   O          17.609          3.259          5.737          1.06243786
   O          19.192          3.306          5.990          1.10917288
   O          28.363          3.528          7.281          1.34837731

  vdW correction parametrized for the method pbe       

  IVDW =  21
  VDW_RADIUS =    50.000 A
  VDW_IDAMPF =  0
  VDW_S6 =     1.000
  VDW_SR =     0.950
  VDW_D =    20.000
  LVDW_ONECELL = F F F
  LVDW_SAMETYPE T T T
  LVDW_EWALD = F

  Number of pair interactions contributing to vdW energy:     323
  Edisp (eV):   -0.01399
    FORVDW:  cpu time  117.8580: real time  117.9473

  FORCE on cell =-STRESS in cart. coord.  units (eV):
  Direction    XX          YY          ZZ          XY          YZ          ZX
  --------------------------------------------------------------------------------------
  Alpha Z     0.03995     0.03995     0.03995
  Ewald    -112.62292  1358.70171    14.84956     3.18810     1.19848    -1.47808
  Hartree   523.40890  1430.25876   546.12277     0.93265    -0.30950    -0.26579
  E(xc)    -111.05450  -108.30738  -110.57371     0.01078     0.00869    -0.00560
  Local    -915.76148 -3192.95715 -1026.29914    -3.29023    -0.11487     1.28351
  n-local    76.05959    60.04581    71.15359    -0.13736    -0.06232     0.05824
  augment   138.31675   125.32871   130.84787    -0.16152    -0.14558     0.08694
  Kinetic   401.61262   343.10414   376.24731    -0.49063    -0.50553     0.29299
  Fock        0.00000     0.00000     0.00000     0.00000     0.00000     0.00000
  vdW        -0.00000    -0.00344     0.00108     0.00003    -0.00115    -0.00002
  -------------------------------------------------------------------------------------
  Total      -0.00108    16.21110     2.38928     0.05182     0.06821    -0.02780
  in kB      -0.00004     0.60579     0.08928     0.00194     0.00255    -0.00104
  external pressure =        0.23 kB  Pullay stress =        0.00 kB


 VOLUME and BASIS-vectors are now :
 -----------------------------------------------------------------------------
  energy-cutoff  :     1000.00
  volume of cell :    42875.00
      direct lattice vectors                 reciprocal lattice vectors
    35.000000000  0.000000000  0.000000000     0.028571429  0.000000000  0.000000000
     0.000000000 35.000000000  0.000000000     0.000000000  0.028571429  0.000000000
     0.000000000  0.000000000 35.000000000     0.000000000  0.000000000  0.028571429

  length of vectors
    35.000000000 35.000000000 35.000000000     0.028571429  0.028571429  0.028571429


 FORCES acting on ions
    electron-ion (+dipol)            ewald-force                    non-local-force                 convergence-correction
 -----------------------------------------------------------------------------------------------
   -.284E+01 -.660E+02 0.789E+02   0.312E+01 0.713E+02 -.870E+02   -.233E+00 -.420E+01 0.648E+01   0.683E-07 0.228E-06 -.105E-05
   -.121E+01 -.723E+02 -.735E+02   0.133E+01 0.784E+02 0.811E+02   -.101E+00 -.478E+01 -.606E+01   0.473E-07 0.304E-06 0.983E-06
   0.315E-01 0.408E+02 -.116E+00   -.411E-01 -.395E+02 0.849E-01   0.704E-02 -.156E+01 0.273E-01   0.535E-07 -.309E-05 -.108E-06
   0.157E+00 -.119E+03 -.285E+00   -.173E+00 0.208E+03 0.393E+00   0.126E-01 -.880E+02 -.121E+00   0.320E-06 -.356E-05 -.306E-06
   0.226E-01 0.294E+03 -.562E-01   -.283E-01 -.379E+03 0.544E-01   0.701E-02 0.818E+02 0.525E-02   -.218E-06 0.279E-05 0.163E-07
   0.181E+01 -.132E+03 -.205E+01   -.422E+01 0.609E+02 0.540E+01   0.234E+01 0.710E+02 -.323E+01   0.265E-06 -.363E-05 0.391E-06
 -----------------------------------------------------------------------------------------------
   -.203E+01 -.544E+02 0.290E+01   -.888E-15 -.711E-13 -.622E-14   0.203E+01 0.544E+02 -.290E+01   0.536E-06 -.696E-05 -.754E-07
 
 
 POSITION                                       TOTAL-FORCE (eV/Angst)
 -----------------------------------------------------------------------------------
      0.02970      3.91265     34.21499         0.054177      1.138502     -1.634748
      0.01365      3.98454      0.72944         0.020198      1.318767      1.520407
      0.00000      0.08826      0.00000        -0.002640     -0.241924     -0.003353
      0.00000      1.25848      0.00000        -0.003089      1.539101     -0.012644
      0.00000     33.91804      0.00000         0.001345     -3.873432      0.003458
      0.00000      3.35848      0.00000        -0.069991      0.118985      0.126879
 -----------------------------------------------------------------------------------
    total drift:                               -0.000002     -0.000219     -0.000022


--------------------------------------------------------------------------------------------------------



  FREE ENERGIE OF THE ION-ELECTRON SYSTEM (eV)
  ---------------------------------------------------
  free  energy   TOTEN  =       -35.28358958 eV

  energy  without entropy=      -35.28358958  energy(sigma->0) =      -35.28358958
 


--------------------------------------------------------------------------------------------------------


    POTLOK:  cpu time   13.9768: real time   14.0016


--------------------------------------------------------------------------------------------------------


 writing wavefunctions
     LOOP+:  cpu time 1473.1256: real time 1475.6595
    4ORBIT:  cpu time    0.0000: real time    0.0000

 total amount of memory used by VASP MPI-rank0  4216433. kBytes
=======================================================================

   base      :      30000. kBytes
   nonl-proj :     443298. kBytes
   fftplans  :     676185. kBytes
   grid      :    3042313. kBytes
   one-center:          9. kBytes
   wavefun   :      24628. kBytes
 
  
  
 General timing and accounting informations for this job:
 ========================================================
  
                  Total CPU time used (sec):     2581.219
                            User time (sec):     2408.760
                          System time (sec):      172.460
                         Elapsed time (sec):     2586.491
  
                   Maximum memory used (kb):     5615460.
                   Average memory used (kb):           0.
  
                          Minor page faults:     82160867
                          Major page faults:          874
                 Voluntary context switches:        15009
