 vasp.6.1.2 22Jul20 (build Jan  6 2021 09:55:43) gamma-only                      
 executed on             LinuxPGI date 2023.10.20  14:45:17
 running on   32 total cores
 distrk:  each k-point on   32 cores,    1 groups
 distr:  one band on NCORE=   1 cores,   32 groups


--------------------------------------------------------------------------------------------------------


 INCAR:
 POTCAR:    PAW_PBE H_s 15May2010                 
 POTCAR:    PAW_PBE C_s 06Sep2000                 
 POTCAR:    PAW_PBE O_s 07Sep2000                 
 -----------------------------------------------------------------------------
|                                                                             |
|           W    W    AA    RRRRR   N    N  II  N    N   GGGG   !!!           |
|           W    W   A  A   R    R  NN   N  II  NN   N  G    G  !!!           |
|           W    W  A    A  R    R  N N  N  II  N N  N  G       !!!           |
|           W WW W  AAAAAA  RRRRR   N  N N  II  N  N N  G  GGG   !            |
|           WW  WW  A    A  R   R   N   NN  II  N   NN  G    G                |
|           W    W  A    A  R    R  N    N  II  N    N   GGGG   !!!           |
|                                                                             |
|     For optimal performance we recommend to set                             |
|       NCORE = 4 - approx SQRT(number of cores).                             |
|     NCORE specifies how many cores store one orbital (NPAR=cpu/NCORE).      |
|     This setting can greatly improve the performance of VASP for DFT.       |
|     The default, NCORE=1 might be grossly inefficient on modern             |
|     multi-core architectures or massively parallel machines. Do your        |
|     own testing!!!!                                                         |
|     Unfortunately you need to use the default for GW and RPA                |
|     calculations (for HF NCORE is supported but not extensively tested      |
|     yet).                                                                   |
|                                                                             |
 -----------------------------------------------------------------------------

 POTCAR:    PAW_PBE H_s 15May2010                 
   VRHFIN =H: ultrasoft test                                                                        
   LEXCH  = PE                                                                                      
   EATOM  =    12.4884 eV,    0.9179 Ry                                                             
                                                                                                    
   TITEL  = PAW_PBE H_s 15May2010                                                                   
   LULTRA =        F    use ultrasoft PP ?                                                          
   IUNSCR =        0    unscreen: 0-lin 1-nonlin 2-no                                               
   RPACOR =    0.000    partial core radius                                                         
   POMASS =    1.000; ZVAL   =    1.000    mass and valenz                                          
   RCORE  =    1.300    outmost cutoff radius                                                       
   RWIGS  =    0.700; RWIGS  =    0.370    wigner-seitz radius (au A)                               
   ENMAX  =  200.000; ENMIN  =  150.000 eV                                                          
   RCLOC  =    0.701    cutoff for local pot                                                        
   LCOR   =        T    correct aug charges                                                         
   LPAW   =        T    paw PP                                                                      
   EAUG   =  300.000                                                                                
   RMAX   =    1.330    core radius for proj-oper                                                   
   RAUG   =    1.200    factor for augmentation sphere                                              
   RDEP   =    1.337    radius for radial grids                                                     
   RDEPT  =    1.114    core radius for aug-charge                                                  
                                                                                                    
   Atomic configuration                                                                             
    2 entries                                                                                       
     n  l   j            E        occ.                                                              
     1  0  0.50        -6.4927   1.0000                                                             
     2  1  0.50        -3.4015   0.0000                                                             
   Description                                                                                      
     l       E           TYP  RCUT    TYP  RCUT                                                     
     0     -6.4927494     23  1.300                                                                 
     0      6.8029130     23  1.300                                                                 
     1     -4.0817478     23  1.300                                                                 
  local pseudopotential read in
  atomic valenz-charges read in
  non local Contribution for L=            0  read in
    real space projection operators read in
  non local Contribution for L=            0  read in
    real space projection operators read in
  non local Contribution for L=            1  read in
    real space projection operators read in
    PAW grid and wavefunctions read in
 
   number of l-projection  operators is LMAX  =            3
   number of lm-projection operators is LMMAX =            5
 
 POTCAR:    PAW_PBE C_s 06Sep2000                 
   VRHFIN =C: s2p2                                                                                  
   LEXCH  = PE                                                                                      
   EATOM  =   147.1560 eV,   10.8157 Ry                                                             
                                                                                                    
   TITEL  = PAW_PBE C_s 06Sep2000                                                                   
   LULTRA =        F    use ultrasoft PP ?                                                          
   IUNSCR =        0    unscreen: 0-lin 1-nonlin 2-no                                               
   RPACOR =    0.000    partial core radius                                                         
   POMASS =   12.011; ZVAL   =    4.000    mass and valenz                                          
   RCORE  =    1.850    outmost cutoff radius                                                       
   RWIGS  =    1.890; RWIGS  =    1.000    wigner-seitz radius (au A)                               
   ENMAX  =  273.911; ENMIN  =  205.433 eV                                                          
   RCLOC  =    0.804    cutoff for local pot                                                        
   LCOR   =        T    correct aug charges                                                         
   LPAW   =        T    paw PP                                                                      
   EAUG   =  439.243                                                                                
   DEXC   =    0.000                                                                                
   RMAX   =    1.897    core radius for proj-oper                                                   
   RAUG   =    1.300    factor for augmentation sphere                                              
   RDEP   =    1.940    radius for radial grids                                                     
   RDEPT  =    1.573    core radius for aug-charge                                                  
                                                                                                    
   Atomic configuration                                                                             
    4 entries                                                                                       
     n  l   j            E        occ.                                                              
     1  0  0.50      -273.3789   2.0000                                                             
     2  0  0.50       -13.7508   2.0000                                                             
     2  1  0.50        -5.2854   2.0000                                                             
     3  2  1.50        -1.3606   0.0000                                                             
   Description                                                                                      
     l       E           TYP  RCUT    TYP  RCUT                                                     
     0    -13.7508457     23  1.500                                                                 
     0    -11.0934578     23  1.500                                                                 
     1     -5.2854381     23  1.850                                                                 
     1     -1.3099858     23  1.850                                                                 
  local pseudopotential read in
  atomic valenz-charges read in
  non local Contribution for L=            0  read in
    real space projection operators read in
  non local Contribution for L=            0  read in
    real space projection operators read in
  non local Contribution for L=            1  read in
    real space projection operators read in
  non local Contribution for L=            1  read in
    real space projection operators read in
    PAW grid and wavefunctions read in
 
   number of l-projection  operators is LMAX  =            4
   number of lm-projection operators is LMMAX =            8
 
 POTCAR:    PAW_PBE O_s 07Sep2000                 
   VRHFIN =O: s2p4                                                                                  
   LEXCH  = PE                                                                                      
   EATOM  =   432.3788 eV,   31.7789 Ry                                                             
                                                                                                    
   TITEL  = PAW_PBE O_s 07Sep2000                                                                   
   LULTRA =        F    use ultrasoft PP ?                                                          
   IUNSCR =        0    unscreen: 0-lin 1-nonlin 2-no                                               
   RPACOR =    0.000    partial core radius                                                         
   POMASS =   16.000; ZVAL   =    6.000    mass and valenz                                          
   RCORE  =    1.850    outmost cutoff radius                                                       
   RWIGS  =    1.700; RWIGS  =    0.900    wigner-seitz radius (au A)                               
   ENMAX  =  282.853; ENMIN  =  212.140 eV                                                          
   RCLOC  =    0.804    cutoff for local pot                                                        
   LCOR   =        T    correct aug charges                                                         
   LPAW   =        T    paw PP                                                                      
   EAUG   =  412.352                                                                                
   RMAX   =    1.897    core radius for proj-oper                                                   
   RAUG   =    1.300    factor for augmentation sphere                                              
   RDEP   =    1.878    radius for radial grids                                                     
   RDEPT  =    1.572    core radius for aug-charge                                                  
                                                                                                    
   Atomic configuration                                                                             
    4 entries                                                                                       
     n  l   j            E        occ.                                                              
     1  0  0.50      -514.6923   2.0000                                                             
     2  0  0.50       -23.9615   2.0000                                                             
     2  1  0.50        -9.0305   4.0000                                                             
     3  2  1.50        -1.3606   0.0000                                                             
   Description                                                                                      
     l       E           TYP  RCUT    TYP  RCUT                                                     
     0    -23.9615315     23  1.500                                                                 
     0    -25.3221141     23  1.500                                                                 
     1     -9.0304908     23  1.850                                                                 
     1     -7.3935399     23  1.850                                                                 
  local pseudopotential read in
  atomic valenz-charges read in
  non local Contribution for L=            0  read in
    real space projection operators read in
  non local Contribution for L=            0  read in
    real space projection operators read in
  non local Contribution for L=            1  read in
    real space projection operators read in
  non local Contribution for L=            1  read in
    real space projection operators read in
    PAW grid and wavefunctions read in
 
   number of l-projection  operators is LMAX  =            4
   number of lm-projection operators is LMMAX =            8
 
  PAW_PBE H_s 15May2010                 :
 energy of atom  1       EATOM=  -12.4884
 kinetic energy error for atom=    0.0000 (will be added to EATOM!!)
  PAW_PBE C_s 06Sep2000                 :
 energy of atom  2       EATOM= -147.1560
 kinetic energy error for atom=    0.0002 (will be added to EATOM!!)
  PAW_PBE O_s 07Sep2000                 :
 energy of atom  3       EATOM= -432.3788
 kinetic energy error for atom=    0.0004 (will be added to EATOM!!)
 
 
 POSCAR:  H  C  O
  positions in cartesian coordinates
  No initial velocities read in
 exchange correlation table for  LEXCH =        8
   RHO(1)=    0.500       N(1)  =     2000
   RHO(2)=  100.500       N(2)  =     4000
 


--------------------------------------------------------------------------------------------------------


 ion  position               nearest neighbor table
   1  0.001  0.123  0.978-   6 0.96
   2  0.000  0.125  0.021-   6 0.96
   3  0.000  0.003  0.000-   4 1.17   5 1.17
   4  0.000  0.036  0.000-   3 1.17
   5  0.000  0.969  0.000-   3 1.17
   6  0.000  0.107  0.000-   2 0.96   1 0.96
 
  LATTYP: Found a simple cubic cell.
 ALAT       =    35.0000000000
  
  Lattice vectors:
  
 A1 = (  35.0000000000,   0.0000000000,   0.0000000000)
 A2 = (   0.0000000000,  35.0000000000,   0.0000000000)
 A3 = (   0.0000000000,   0.0000000000,  35.0000000000)


Analysis of symmetry for initial positions (statically):
=====================================================================
 Subroutine PRICEL returns:
 Original cell was already a primitive cell.
 

 Routine SETGRP: Setting up the symmetry group for a 
 simple cubic supercell.


 Subroutine GETGRP returns: Found  1 space group operations
 (whereof  1 operations were pure point group operations)
 out of a pool of 48 trial point group operations.


The static configuration has the point symmetry C_1 .


Analysis of symmetry for dynamics (positions and initial velocities):
=====================================================================
 Subroutine PRICEL returns:
 Original cell was already a primitive cell.
 

 Routine SETGRP: Setting up the symmetry group for a 
 simple cubic supercell.


 Subroutine GETGRP returns: Found  1 space group operations
 (whereof  1 operations were pure point group operations)
 out of a pool of 48 trial point group operations.


The dynamic configuration has the point symmetry C_1 .


 Subroutine INISYM returns: Found  1 space group operations
 (whereof  1 operations are pure point group operations),
 and found     1 'primitive' translations


----------------------------------------------------------------------------------------

                                     Primitive cell                                     

  volume of cell :   42875.0000

  direct lattice vectors                    reciprocal lattice vectors
    35.000000000  0.000000000  0.000000000     0.028571429  0.000000000  0.000000000
     0.000000000 35.000000000  0.000000000     0.000000000  0.028571429  0.000000000
     0.000000000  0.000000000 35.000000000     0.000000000  0.000000000  0.028571429

  length of vectors
    35.000000000 35.000000000 35.000000000     0.028571429  0.028571429  0.028571429

  position of ions in fractional coordinates (direct lattice)
     0.000848682  0.123218499  0.977571084
     0.000390051  0.125272672  0.020841195
     0.000000000  0.002521600  0.000000000
     0.000000000  0.035956457  0.000000000
     0.000000000  0.969086743  0.000000000
     0.000000000  0.107385029  0.000000000

  ion indices of the primitive-cell ions
   primitive index   ion index
                 1           1
                 2           2
                 3           3
                 4           4
                 5           5
                 6           6

----------------------------------------------------------------------------------------

 
 
 KPOINTS: g                                       

Automatic generation of k-mesh.
Space group operators:
 irot       det(A)        alpha          n_x          n_y          n_z        tau_x        tau_y        tau_z
    1     1.000000     0.000000     1.000000     0.000000     0.000000     0.000000     0.000000     0.000000
 
 Subroutine IBZKPT returns following result:
 ===========================================
 
 Found      1 irreducible k-points:
 
 Following reciprocal coordinates:
            Coordinates               Weight
  0.000000  0.000000  0.000000      1.000000
 
 Following cartesian coordinates:
            Coordinates               Weight
  0.000000  0.000000  0.000000      1.000000
 


--------------------------------------------------------------------------------------------------------




 Dimension of arrays:
   k-points           NKPTS =      1   k-points in BZ     NKDIM =      1   number of bands    NBANDS=     32
   number of dos      NEDOS =    301   number of ions     NIONS =      6
   non local maximal  LDIM  =      4   non local SUM 2l+1 LMDIM =      8
   total plane-waves  NPLWV = ******
   max r-space proj   IRMAX =      1   max aug-charges    IRDMAX=  29269
   dimension x,y,z NGX =   378 NGY =  378 NGZ =  378
   dimension x,y,z NGXF=   756 NGYF=  756 NGZF=  756
   support grid    NGXF=   756 NGYF=  756 NGZF=  756
   ions per type =               2   1   3
   NGX,Y,Z   is equivalent  to a cutoff of  17.95, 17.95, 17.95 a.u.
   NGXF,Y,Z  is equivalent  to a cutoff of  35.91, 35.91, 35.91 a.u.

 SYSTEM =  C                                       
 POSCAR =   H  C  O                                

 Startparameter for this run:
   NWRITE =      2    write-flag & timer
   PREC   = acc       normal or accurate (medium, high low for compatibility)
   ISTART =      0    job   : 0-new  1-cont  2-samecut
   ICHARG =      2    charge: 1-file 2-atom 10-const
   ISPIN  =      1    spin polarized calculation?
   LNONCOLLINEAR =      F non collinear calculations
   LSORBIT =      F    spin-orbit coupling
   INIWAV =      1    electr: 0-lowe 1-rand  2-diag
   LASPH  =      T    aspherical Exc in radial PAW
   METAGGA=      F    non-selfconsistent MetaGGA calc.

 Electronic Relaxation 1
   ENCUT  = 1000.0 eV  73.50 Ry    8.57 a.u.  90.25 90.25 90.25*2*pi/ulx,y,z
   ENINI  = 1000.0     initial cutoff
   ENAUG  =  439.2 eV  augmentation charge cutoff
   NELM   =     60;   NELMIN=  2; NELMDL= -5     # of ELM steps 
   EDIFF  = 0.1E-06   stopping-criterion for ELM
   LREAL  =      F    real-space projection
   NLSPLINE    = F    spline interpolate recip. space projectors
   LCOMPAT=      F    compatible to vasp.4.4
   GGA_COMPAT  = T    GGA compatible to vasp.4.4-vasp.4.6
   LMAXPAW     = -100 max onsite density
   LMAXMIX     =    2 max onsite mixed and CHGCAR
   VOSKOWN=      0    Vosko Wilk Nusair interpolation
   ROPT   =    0.00000   0.00000   0.00000
 Ionic relaxation
   EDIFFG = 0.1E-05   stopping-criterion for IOM
   NSW    =      0    number of steps for IOM
   NBLOCK =      1;   KBLOCK =      1    inner block; outer block 
   IBRION =     -1    ionic relax: 0-MD 1-quasi-New 2-CG
   NFREE  =      0    steps in history (QN), initial steepest desc. (CG)
   ISIF   =      2    stress and relaxation
   IWAVPR =     10    prediction:  0-non 1-charg 2-wave 3-comb
   ISYM   =      2    0-nonsym 1-usesym 2-fastsym
   LCORR  =      T    Harris-Foulkes like correction to forces

   POTIM  = 0.5000    time-step for ionic-motion
   TEIN   =    0.0    initial temperature
   TEBEG  =    0.0;   TEEND  =   0.0 temperature during run
   SMASS  =  -3.00    Nose mass-parameter (am)
   estimated Nose-frequenzy (Omega)   =  0.10E-29 period in steps = 0.13E+47 mass=  -0.280E-25a.u.
   SCALEE = 1.0000    scale energy and forces
   NPACO  =    256;   APACO  = 16.0  distance and # of slots for P.C.
   PSTRESS=    0.0 pullay stress

  Mass of Ions in am
   POMASS =   1.00 12.01 16.00
  Ionic Valenz
   ZVAL   =   1.00  4.00  6.00
  Atomic Wigner-Seitz radii
   RWIGS  =  -1.00 -1.00 -1.00
  virtual crystal weights 
   VCA    =   1.00  1.00  1.00
   NELECT =      24.0000    total number of electrons
   NUPDOWN=      -1.0000    fix difference up-down

 DOS related values:
   EMIN   =  10.00;   EMAX   =-10.00  energy-range for DOS
   EFERMI =   0.00
   ISMEAR =     0;   SIGMA  =   0.01  broadening in eV -4-tet -1-fermi 0-gaus

 Electronic relaxation 2 (details)
   IALGO  =     38    algorithm
   LDIAG  =      T    sub-space diagonalisation (order eigenvalues)
   LSUBROT=      F    optimize rotation matrix (better conditioning)
   TURBO    =      0    0=normal 1=particle mesh
   IRESTART =      0    0=no restart 2=restart with 2 vectors
   NREBOOT  =      0    no. of reboots
   NMIN     =      0    reboot dimension
   EREF     =   0.00    reference energy to select bands
   IMIX   =      4    mixing-type and parameters
     AMIX     =   0.40;   BMIX     =  1.00
     AMIX_MAG =   1.60;   BMIX_MAG =  1.00
     AMIN     =   0.10
     WC   =   100.;   INIMIX=   1;  MIXPRE=   1;  MAXMIX= -45

 Intra band minimization:
   WEIMIN = 0.0000     energy-eigenvalue tresh-hold
   EBREAK =  0.78E-09  absolut break condition
   DEPER  =   0.30     relativ break condition  

   TIME   =   0.40     timestep for ELM

  volume/ion in A,a.u.               =    7145.83     48222.46
  Fermi-wavevector in a.u.,A,eV,Ry     =   0.134920  0.254962  0.247673  0.018203
  Thomas-Fermi vector in A             =   0.783236
 
 Write flags
   LWAVE        =      T    write WAVECAR
   LDOWNSAMPLE  =      F    k-point downsampling of WAVECAR
   LCHARG       =      T    write CHGCAR
   LVTOT        =      F    write LOCPOT, total local potential
   LVHAR        =      F    write LOCPOT, Hartree potential only
   LELF         =      F    write electronic localiz. function (ELF)
   LORBIT       =      0    0 simple, 1 ext, 2 COOP (PROOUT), +10 PAW based schemes


 Dipole corrections
   LMONO  =      F    monopole corrections only (constant potential shift)
   LDIPOL =      F    correct potential (dipole corrections)
   IDIPOL =      4    1-x, 2-y, 3-z, 4-all directions 
   EPSILON=  1.0000000 bulk dielectric constant

 Exchange correlation treatment:
   GGA     =    --    GGA type
   LEXCH   =     8    internal setting for exchange type
   VOSKOWN=      0    Vosko Wilk Nusair interpolation
   LHFCALC =     F    Hartree Fock is set to
   LHFONE  =     F    Hartree Fock one center treatment
   AEXX    =    0.0000 exact exchange contribution

 Linear response parameters
   LEPSILON=     F    determine dielectric tensor
   LRPA    =     F    only Hartree local field effects (RPA)
   LNABLA  =     F    use nabla operator in PAW spheres
   LVEL    =     F    velocity operator in full k-point grid
   LINTERFAST=   F  fast interpolation
   KINTER  =     0    interpolate to denser k-point grid
   CSHIFT  =0.1000    complex shift for real part using Kramers Kronig
   OMEGAMAX=  -1.0    maximum frequency
   DEG_THRESHOLD= 0.2000000E-02 threshold for treating states as degnerate
   RTIME   =   -0.100 relaxation time in fs
  (WPLASMAI=    0.000 imaginary part of plasma frequency in eV, 0.658/RTIME)
   DFIELD  = 0.0000000 0.0000000 0.0000000 field for delta impulse in time
 
 Orbital magnetization related:
   ORBITALMAG=     F  switch on orbital magnetization
   LCHIMAG   =     F  perturbation theory with respect to B field
   DQ        =  0.001000  dq finite difference perturbation B field
   LLRAUG    =     F  two centre corrections for induced B field



--------------------------------------------------------------------------------------------------------


 Static calculation
 charge density and potential will be updated during run
 non-spin polarized calculation
 Variant of blocked Davidson
 Davidson routine will perform the subspace rotation
 perform sub-space diagonalisation
    after iterative eigenvector-optimisation
 modified Broyden-mixing scheme, WC =      100.0
 initial mixing is a Kerker type mixing with AMIX =  0.4000 and BMIX =      1.0000
 Hartree-type preconditioning will be used
 using additional bands            20
 reciprocal scheme for non local part
 calculate Harris-corrections to forces 
   (improved forces if not selfconsistent)
 use gradient corrections 
 use of overlap-Matrix (Vanderbilt PP)
 Gauss-broadening in eV      SIGMA  =   0.01


--------------------------------------------------------------------------------------------------------


  energy-cutoff  :     1000.00
  volume of cell :    42875.00
      direct lattice vectors                 reciprocal lattice vectors
    35.000000000  0.000000000  0.000000000     0.028571429  0.000000000  0.000000000
     0.000000000 35.000000000  0.000000000     0.000000000  0.028571429  0.000000000
     0.000000000  0.000000000 35.000000000     0.000000000  0.000000000  0.028571429

  length of vectors
    35.000000000 35.000000000 35.000000000     0.028571429  0.028571429  0.028571429


 
 k-points in units of 2pi/SCALE and weight: g                                       
   0.00000000  0.00000000  0.00000000       1.000
 
 k-points in reciprocal lattice and weights: g                                       
   0.00000000  0.00000000  0.00000000       1.000
 
 position of ions in fractional coordinates (direct lattice) 
   0.00084868  0.12321850  0.97757108
   0.00039005  0.12527267  0.02084119
   0.00000000  0.00252160  0.00000000
   0.00000000  0.03595646  0.00000000
   0.00000000  0.96908674  0.00000000
   0.00000000  0.10738503  0.00000000
 
 position of ions in cartesian coordinates  (Angst):
   0.02970387  4.31264746 34.21498793
   0.01365177  4.38454352  0.72944182
   0.00000000  0.08825600  0.00000000
   0.00000000  1.25847600  0.00000000
   0.00000000 33.91803600  0.00000000
   0.00000000  3.75847600  0.00000000
 


--------------------------------------------------------------------------------------------------------


 use serial FFT for orbitals x direction half grid
 k-point   1 :   0.0000 0.0000 0.0000  plane waves: 1539209

 maximum and minimum number of plane-waves per node :   1539209  1539209

 maximum number of plane-waves:   1539209
 maximum index in each direction: 
   IXMAX=   90   IYMAX=   90   IZMAX=   90
   IXMIN=    0   IYMIN=  -90   IZMIN=  -90


 serial   3D FFT for wavefunctions
 parallel 3D FFT for charge:
    minimum data exchange during FFTs selected (reduces bandwidth)


 total amount of memory used by VASP MPI-rank0  4216433. kBytes
=======================================================================

   base      :      30000. kBytes
   nonl-proj :     443298. kBytes
   fftplans  :     676185. kBytes
   grid      :    3042313. kBytes
   one-center:          9. kBytes
   wavefun   :      24628. kBytes
 
     INWAV:  cpu time    0.0000: real time    0.0000
 Broyden mixing: mesh for mixing (old mesh)
   NGX =181   NGY =181   NGZ =181
  (NGX  =756   NGY  =756   NGZ  =756)
  gives a total of ****** points

 initial charge density was supplied:
 charge density of overlapping atoms calculated
 number of electron      24.0000000 magnetization 
 keeping initial charge density in first step


--------------------------------------------------------------------------------------------------------


 Maximum index for augmentation-charges          1120 (set IRDMAX)


--------------------------------------------------------------------------------------------------------


 First call to EWALD:  gamma=   0.051
 Maximum number of real-space cells 3x 3x 3
 Maximum number of reciprocal cells 3x 3x 3

    FEWALD:  cpu time    0.0012: real time    0.0012


--------------------------------------- Iteration      1(   1)  ---------------------------------------


    POTLOK:  cpu time   12.9733: real time   12.9944
    SETDIJ:  cpu time    0.0407: real time    0.0414
     EDDAV:  cpu time   20.0734: real time   20.1178
       DOS:  cpu time    0.0016: real time    0.0016
    --------------------------------------------
      LOOP:  cpu time   33.0890: real time   33.1552

 eigenvalue-minimisations  :   128
 total energy-change (2. order) : 0.1597386E+03  (-0.4940467E+03)
 number of electron      24.0000000 magnetization 
 augmentation part       24.0000000 magnetization 

 Free energy of the ion-electron system (eV)
  ---------------------------------------------------
  alpha Z        PSCENC =         0.03994862
  Ewald energy   TEWEN  =      1187.90659196
  -Hartree energ DENC   =     -2343.32133694
  -exchange      EXHF   =         0.00000000
  -V(xc)+E(xc)   XCENC  =       100.18563039
  PAW double counting   =      1147.08281512    -1160.42820606
  entropy T*S    EENTRO =        -0.00000878
  eigenvalues    EBANDS =      -240.99446298
  atomic energy  EATOM  =      1469.26766065
  Solvation  Ediel_sol  =         0.00000000
  ---------------------------------------------------
  free energy    TOTEN  =       159.73863197 eV

  energy without entropy =      159.73864075  energy(sigma->0) =      159.73863636


--------------------------------------------------------------------------------------------------------




--------------------------------------- Iteration      1(   2)  ---------------------------------------


     EDDAV:  cpu time   20.1463: real time   20.1848
       DOS:  cpu time    0.0004: real time    0.0004
    --------------------------------------------
      LOOP:  cpu time   20.1467: real time   20.1852

 eigenvalue-minimisations  :   128
 total energy-change (2. order) :-0.1828514E+03  (-0.1828502E+03)
 number of electron      24.0000000 magnetization 
 augmentation part       24.0000000 magnetization 

 Free energy of the ion-electron system (eV)
  ---------------------------------------------------
  alpha Z        PSCENC =         0.03994862
  Ewald energy   TEWEN  =      1187.90659196
  -Hartree energ DENC   =     -2343.32133694
  -exchange      EXHF   =         0.00000000
  -V(xc)+E(xc)   XCENC  =       100.18563039
  PAW double counting   =      1147.08281512    -1160.42820606
  entropy T*S    EENTRO =        -0.00000000
  eigenvalues    EBANDS =      -423.84589369
  atomic energy  EATOM  =      1469.26766065
  Solvation  Ediel_sol  =         0.00000000
  ---------------------------------------------------
  free energy    TOTEN  =       -23.11278997 eV

  energy without entropy =      -23.11278997  energy(sigma->0) =      -23.11278997


--------------------------------------------------------------------------------------------------------




--------------------------------------- Iteration      1(   3)  ---------------------------------------


     EDDAV:  cpu time   12.1548: real time   12.1778
       DOS:  cpu time    0.0055: real time    0.0055
    --------------------------------------------
      LOOP:  cpu time   12.1604: real time   12.1834

 eigenvalue-minimisations  :    64
 total energy-change (2. order) :-0.1668386E+02  (-0.1668386E+02)
 number of electron      24.0000000 magnetization 
 augmentation part       24.0000000 magnetization 

 Free energy of the ion-electron system (eV)
  ---------------------------------------------------
  alpha Z        PSCENC =         0.03994862
  Ewald energy   TEWEN  =      1187.90659196
  -Hartree energ DENC   =     -2343.32133694
  -exchange      EXHF   =         0.00000000
  -V(xc)+E(xc)   XCENC  =       100.18563039
  PAW double counting   =      1147.08281512    -1160.42820606
  entropy T*S    EENTRO =        -0.00000000
  eigenvalues    EBANDS =      -440.52975779
  atomic energy  EATOM  =      1469.26766065
  Solvation  Ediel_sol  =         0.00000000
  ---------------------------------------------------
  free energy    TOTEN  =       -39.79665406 eV

  energy without entropy =      -39.79665406  energy(sigma->0) =      -39.79665406


--------------------------------------------------------------------------------------------------------




--------------------------------------- Iteration      1(   4)  ---------------------------------------


     EDDAV:  cpu time   20.1131: real time   20.1589
       DOS:  cpu time    0.0023: real time    0.0023
    --------------------------------------------
      LOOP:  cpu time   20.1153: real time   20.1612

 eigenvalue-minimisations  :   128
 total energy-change (2. order) :-0.1585205E+00  (-0.1585205E+00)
 number of electron      24.0000000 magnetization 
 augmentation part       24.0000000 magnetization 

 Free energy of the ion-electron system (eV)
  ---------------------------------------------------
  alpha Z        PSCENC =         0.03994862
  Ewald energy   TEWEN  =      1187.90659196
  -Hartree energ DENC   =     -2343.32133694
  -exchange      EXHF   =         0.00000000
  -V(xc)+E(xc)   XCENC  =       100.18563039
  PAW double counting   =      1147.08281512    -1160.42820606
  entropy T*S    EENTRO =        -0.00000000
  eigenvalues    EBANDS =      -440.68827827
  atomic energy  EATOM  =      1469.26766065
  Solvation  Ediel_sol  =         0.00000000
  ---------------------------------------------------
  free energy    TOTEN  =       -39.95517454 eV

  energy without entropy =      -39.95517454  energy(sigma->0) =      -39.95517454


--------------------------------------------------------------------------------------------------------




--------------------------------------- Iteration      1(   5)  ---------------------------------------


     EDDAV:  cpu time   12.1130: real time   12.1438
       DOS:  cpu time    0.0039: real time    0.0039
    CHARGE:  cpu time    5.3722: real time    5.3882
    MIXING:  cpu time    0.2405: real time    0.2409
    --------------------------------------------
      LOOP:  cpu time   17.7296: real time   17.7768

 eigenvalue-minimisations  :    64
 total energy-change (2. order) :-0.4143458E-04  (-0.4144461E-04)
 number of electron      23.9999998 magnetization 
 augmentation part        4.6529077 magnetization 

 Broyden mixing:
  rms(total) = 0.49602E+01    rms(broyden)= 0.49602E+01
  rms(prec ) = 0.49686E+01
  weight for this iteration     100.00

 Free energy of the ion-electron system (eV)
  ---------------------------------------------------
  alpha Z        PSCENC =         0.03994862
  Ewald energy   TEWEN  =      1187.90659196
  -Hartree energ DENC   =     -2343.32133694
  -exchange      EXHF   =         0.00000000
  -V(xc)+E(xc)   XCENC  =       100.18563039
  PAW double counting   =      1147.08281512    -1160.42820606
  entropy T*S    EENTRO =        -0.00000000
  eigenvalues    EBANDS =      -440.68831970
  atomic energy  EATOM  =      1469.26766065
  Solvation  Ediel_sol  =         0.00000000
  ---------------------------------------------------
  free energy    TOTEN  =       -39.95521598 eV

  energy without entropy =      -39.95521598  energy(sigma->0) =      -39.95521598


--------------------------------------------------------------------------------------------------------




--------------------------------------- Iteration      1(   6)  ---------------------------------------


    POTLOK:  cpu time   12.7119: real time   12.7363
    SETDIJ:  cpu time    0.0404: real time    0.0404
     EDDAV:  cpu time   16.0834: real time   16.1146
       DOS:  cpu time    0.0168: real time    0.0168
    CHARGE:  cpu time    5.2940: real time    5.3006
    MIXING:  cpu time    0.2413: real time    0.2439
    --------------------------------------------
      LOOP:  cpu time   34.3878: real time   34.4526

 eigenvalue-minimisations  :    96
 total energy-change (2. order) : 0.3711416E+01  (-0.2258040E+01)
 number of electron      23.9999998 magnetization 
 augmentation part        4.0569066 magnetization 

 Broyden mixing:
  rms(total) = 0.51914E+01    rms(broyden)= 0.51914E+01
  rms(prec ) = 0.51921E+01
  weight for this iteration     100.00

 eigenvalues of (default mixing * dielectric matrix)
  average eigenvalue GAMMA=   0.2336
  0.2336

 Free energy of the ion-electron system (eV)
  ---------------------------------------------------
  alpha Z        PSCENC =         0.03994862
  Ewald energy   TEWEN  =      1187.90659196
  -Hartree energ DENC   =     -2394.12124093
  -exchange      EXHF   =         0.00000000
  -V(xc)+E(xc)   XCENC  =       103.03215048
  PAW double counting   =      2254.19423857    -2270.11412332
  entropy T*S    EENTRO =        -0.00000000
  eigenvalues    EBANDS =      -386.44902555
  atomic energy  EATOM  =      1469.26766065
  Solvation  Ediel_sol  =         0.00000000
  ---------------------------------------------------
  free energy    TOTEN  =       -36.24379953 eV

  energy without entropy =      -36.24379953  energy(sigma->0) =      -36.24379953


--------------------------------------------------------------------------------------------------------




--------------------------------------- Iteration      1(   7)  ---------------------------------------


    POTLOK:  cpu time   12.8212: real time   12.8418
    SETDIJ:  cpu time    0.0403: real time    0.0403
     EDDAV:  cpu time   12.1479: real time   12.1716
       DOS:  cpu time    0.0016: real time    0.0016
    CHARGE:  cpu time    5.2330: real time    5.2459
    MIXING:  cpu time    0.2528: real time    0.2539
    --------------------------------------------
      LOOP:  cpu time   30.4967: real time   30.5552

 eigenvalue-minimisations  :    64
 total energy-change (2. order) : 0.7829360E-01  (-0.2473819E-01)
 number of electron      23.9999998 magnetization 
 augmentation part        4.0610058 magnetization 

 Broyden mixing:
  rms(total) = 0.46290E+01    rms(broyden)= 0.46290E+01
  rms(prec ) = 0.46297E+01
  weight for this iteration     100.00

 eigenvalues of (default mixing * dielectric matrix)
  average eigenvalue GAMMA=   1.7376
  0.9297  2.5454

 Free energy of the ion-electron system (eV)
  ---------------------------------------------------
  alpha Z        PSCENC =         0.03994862
  Ewald energy   TEWEN  =      1187.90659196
  -Hartree energ DENC   =     -2396.26967795
  -exchange      EXHF   =         0.00000000
  -V(xc)+E(xc)   XCENC  =       103.11407277
  PAW double counting   =      2553.24796529    -2569.07752582
  entropy T*S    EENTRO =        -0.00000000
  eigenvalues    EBANDS =      -384.39454145
  atomic energy  EATOM  =      1469.26766065
  Solvation  Ediel_sol  =         0.00000000
  ---------------------------------------------------
  free energy    TOTEN  =       -36.16550593 eV

  energy without entropy =      -36.16550593  energy(sigma->0) =      -36.16550593


--------------------------------------------------------------------------------------------------------




--------------------------------------- Iteration      1(   8)  ---------------------------------------


    POTLOK:  cpu time   12.8723: real time   12.9064
    SETDIJ:  cpu time    0.0405: real time    0.0405
     EDDAV:  cpu time   16.0870: real time   16.1229
       DOS:  cpu time    0.0038: real time    0.0038
    CHARGE:  cpu time    5.1911: real time    5.1977
    MIXING:  cpu time    0.2392: real time    0.2396
    --------------------------------------------
      LOOP:  cpu time   34.4339: real time   34.5109

 eigenvalue-minimisations  :    96
 total energy-change (2. order) : 0.3417692E+00  (-0.1409137E+00)
 number of electron      23.9999998 magnetization 
 augmentation part        4.0807225 magnetization 

 Broyden mixing:
  rms(total) = 0.74979E+00    rms(broyden)= 0.74979E+00
  rms(prec ) = 0.75048E+00
  weight for this iteration     100.00

 eigenvalues of (default mixing * dielectric matrix)
  average eigenvalue GAMMA=   1.3461
  2.4756  0.7813  0.7813

 Free energy of the ion-electron system (eV)
  ---------------------------------------------------
  alpha Z        PSCENC =         0.03994862
  Ewald energy   TEWEN  =      1187.90659196
  -Hartree energ DENC   =     -2417.90158602
  -exchange      EXHF   =         0.00000000
  -V(xc)+E(xc)   XCENC  =       104.05367803
  PAW double counting   =      6008.01258475    -6023.41672478
  entropy T*S    EENTRO =        -0.00000000
  eigenvalues    EBANDS =      -363.78588998
  atomic energy  EATOM  =      1469.26766065
  Solvation  Ediel_sol  =         0.00000000
  ---------------------------------------------------
  free energy    TOTEN  =       -35.82373677 eV

  energy without entropy =      -35.82373677  energy(sigma->0) =      -35.82373677


--------------------------------------------------------------------------------------------------------




--------------------------------------- Iteration      1(   9)  ---------------------------------------


    POTLOK:  cpu time   12.8083: real time   12.8292
    SETDIJ:  cpu time    0.0402: real time    0.0402
     EDDAV:  cpu time   16.0627: real time   16.1143
       DOS:  cpu time    0.0033: real time    0.0033
    CHARGE:  cpu time    5.2398: real time    5.2491
    MIXING:  cpu time    0.2897: real time    0.2901
    --------------------------------------------
      LOOP:  cpu time   34.4439: real time   34.5262

 eigenvalue-minimisations  :    96
 total energy-change (2. order) : 0.2733069E-01  (-0.1208140E-01)
 number of electron      23.9999998 magnetization 
 augmentation part        4.0537773 magnetization 

 Broyden mixing:
  rms(total) = 0.36746E+00    rms(broyden)= 0.36746E+00
  rms(prec ) = 0.36781E+00
  weight for this iteration     100.00

 eigenvalues of (default mixing * dielectric matrix)
  average eigenvalue GAMMA=   1.3261
  2.5608  0.9225  0.9225  0.8986

 Free energy of the ion-electron system (eV)
  ---------------------------------------------------
  alpha Z        PSCENC =         0.03994862
  Ewald energy   TEWEN  =      1187.90659196
  -Hartree energ DENC   =     -2418.67810241
  -exchange      EXHF   =         0.00000000
  -V(xc)+E(xc)   XCENC  =       104.08731510
  PAW double counting   =      5981.87039736    -5997.31637482
  entropy T*S    EENTRO =        -0.00000000
  eigenvalues    EBANDS =      -362.97384253
  atomic energy  EATOM  =      1469.26766065
  Solvation  Ediel_sol  =         0.00000000
  ---------------------------------------------------
  free energy    TOTEN  =       -35.79640608 eV

  energy without entropy =      -35.79640608  energy(sigma->0) =      -35.79640608


--------------------------------------------------------------------------------------------------------




--------------------------------------- Iteration      1(  10)  ---------------------------------------


    POTLOK:  cpu time   12.8800: real time   12.9069
    SETDIJ:  cpu time    0.0402: real time    0.0402
     EDDAV:  cpu time   12.0963: real time   12.1288
       DOS:  cpu time    0.0092: real time    0.0092
    CHARGE:  cpu time    5.2221: real time    5.2292
    MIXING:  cpu time    0.2666: real time    0.2673
    --------------------------------------------
      LOOP:  cpu time   30.5144: real time   30.5816

 eigenvalue-minimisations  :    64
 total energy-change (2. order) : 0.7449028E-03  (-0.7815855E-03)
 number of electron      23.9999998 magnetization 
 augmentation part        4.0509985 magnetization 

 Broyden mixing:
  rms(total) = 0.25582E+00    rms(broyden)= 0.25582E+00
  rms(prec ) = 0.25609E+00
  weight for this iteration     100.00

 eigenvalues of (default mixing * dielectric matrix)
  average eigenvalue GAMMA=   1.4159
  2.4283  1.4232  1.4232  0.9025  0.9025

 Free energy of the ion-electron system (eV)
  ---------------------------------------------------
  alpha Z        PSCENC =         0.03994862
  Ewald energy   TEWEN  =      1187.90659196
  -Hartree energ DENC   =     -2419.45771500
  -exchange      EXHF   =         0.00000000
  -V(xc)+E(xc)   XCENC  =       104.08959673
  PAW double counting   =      6094.79715161    -6110.15723715
  entropy T*S    EENTRO =        -0.00000000
  eigenvalues    EBANDS =      -362.28165859
  atomic energy  EATOM  =      1469.26766065
  Solvation  Ediel_sol  =         0.00000000
  ---------------------------------------------------
  free energy    TOTEN  =       -35.79566118 eV

  energy without entropy =      -35.79566118  energy(sigma->0) =      -35.79566118


--------------------------------------------------------------------------------------------------------




--------------------------------------- Iteration      1(  11)  ---------------------------------------


    POTLOK:  cpu time   12.8233: real time   12.8445
    SETDIJ:  cpu time    0.0402: real time    0.0402
     EDDAV:  cpu time   12.0958: real time   12.1188
       DOS:  cpu time    0.0165: real time    0.0165
    CHARGE:  cpu time    5.2419: real time    5.2515
    MIXING:  cpu time    0.2936: real time    0.2941
    --------------------------------------------
      LOOP:  cpu time   30.5113: real time   30.5656

 eigenvalue-minimisations  :    64
 total energy-change (2. order) :-0.3018955E-02  (-0.7605695E-03)
 number of electron      23.9999998 magnetization 
 augmentation part        4.0479154 magnetization 

 Broyden mixing:
  rms(total) = 0.45743E-01    rms(broyden)= 0.45743E-01
  rms(prec ) = 0.46265E-01
  weight for this iteration     100.00

 eigenvalues of (default mixing * dielectric matrix)
  average eigenvalue GAMMA=   1.3973
  2.2582  2.2582  1.1506  0.9156  0.9156  0.8858

 Free energy of the ion-electron system (eV)
  ---------------------------------------------------
  alpha Z        PSCENC =         0.03994862
  Ewald energy   TEWEN  =      1187.90659196
  -Hartree energ DENC   =     -2420.49475364
  -exchange      EXHF   =         0.00000000
  -V(xc)+E(xc)   XCENC  =       104.08122992
  PAW double counting   =      6099.67569477    -6114.95015258
  entropy T*S    EENTRO =        -0.00000000
  eigenvalues    EBANDS =      -361.32489981
  atomic energy  EATOM  =      1469.26766065
  Solvation  Ediel_sol  =         0.00000000
  ---------------------------------------------------
  free energy    TOTEN  =       -35.79868013 eV

  energy without entropy =      -35.79868013  energy(sigma->0) =      -35.79868013


--------------------------------------------------------------------------------------------------------




--------------------------------------- Iteration      1(  12)  ---------------------------------------


    POTLOK:  cpu time   12.8709: real time   12.9004
    SETDIJ:  cpu time    0.0402: real time    0.0402
     EDDAV:  cpu time   20.1257: real time   20.1665
       DOS:  cpu time    0.0033: real time    0.0033
    CHARGE:  cpu time    5.1824: real time    5.1892
    MIXING:  cpu time    0.2700: real time    0.2705
    --------------------------------------------
      LOOP:  cpu time   38.4924: real time   38.5701

 eigenvalue-minimisations  :   128
 total energy-change (2. order) :-0.2157024E-02  (-0.1074537E-03)
 number of electron      23.9999998 magnetization 
 augmentation part        4.0460364 magnetization 

 Broyden mixing:
  rms(total) = 0.96871E-02    rms(broyden)= 0.96871E-02
  rms(prec ) = 0.11115E-01
  weight for this iteration     100.00

 eigenvalues of (default mixing * dielectric matrix)
  average eigenvalue GAMMA=   1.5244
  2.7184  2.4222  1.8268  0.9400  0.9400  0.9117  0.9117

 Free energy of the ion-electron system (eV)
  ---------------------------------------------------
  alpha Z        PSCENC =         0.03994862
  Ewald energy   TEWEN  =      1187.90659196
  -Hartree energ DENC   =     -2421.32624772
  -exchange      EXHF   =         0.00000000
  -V(xc)+E(xc)   XCENC  =       104.09409040
  PAW double counting   =      6106.47298915    -6121.73319943
  entropy T*S    EENTRO =        -0.00000000
  eigenvalues    EBANDS =      -360.52267078
  atomic energy  EATOM  =      1469.26766065
  Solvation  Ediel_sol  =         0.00000000
  ---------------------------------------------------
  free energy    TOTEN  =       -35.80083716 eV

  energy without entropy =      -35.80083716  energy(sigma->0) =      -35.80083716


--------------------------------------------------------------------------------------------------------




--------------------------------------- Iteration      1(  13)  ---------------------------------------


    POTLOK:  cpu time   12.8533: real time   12.8743
    SETDIJ:  cpu time    0.0404: real time    0.0405
     EDDAV:  cpu time   12.1236: real time   12.1497
       DOS:  cpu time    0.0078: real time    0.0078
    CHARGE:  cpu time    5.2375: real time    5.2530
    MIXING:  cpu time    0.3142: real time    0.3147
    --------------------------------------------
      LOOP:  cpu time   30.5769: real time   30.6400

 eigenvalue-minimisations  :    64
 total energy-change (2. order) :-0.3537693E-02  (-0.8320100E-04)
 number of electron      23.9999998 magnetization 
 augmentation part        4.0452512 magnetization 

 Broyden mixing:
  rms(total) = 0.67895E-02    rms(broyden)= 0.67895E-02
  rms(prec ) = 0.76379E-02
  weight for this iteration     100.00

 eigenvalues of (default mixing * dielectric matrix)
  average eigenvalue GAMMA=   1.6331
  3.8510  2.4427  1.8610  1.2677  0.9151  0.9151  0.9860  0.8264

 Free energy of the ion-electron system (eV)
  ---------------------------------------------------
  alpha Z        PSCENC =         0.03994862
  Ewald energy   TEWEN  =      1187.90659196
  -Hartree energ DENC   =     -2422.64464540
  -exchange      EXHF   =         0.00000000
  -V(xc)+E(xc)   XCENC  =       104.11372031
  PAW double counting   =      6107.18123843    -6122.43707288
  entropy T*S    EENTRO =        -0.00000000
  eigenvalues    EBANDS =      -359.23181653
  atomic energy  EATOM  =      1469.26766065
  Solvation  Ediel_sol  =         0.00000000
  ---------------------------------------------------
  free energy    TOTEN  =       -35.80437485 eV

  energy without entropy =      -35.80437485  energy(sigma->0) =      -35.80437485


--------------------------------------------------------------------------------------------------------




--------------------------------------- Iteration      1(  14)  ---------------------------------------


    POTLOK:  cpu time   12.8932: real time   12.9147
    SETDIJ:  cpu time    0.0402: real time    0.0402
     EDDAV:  cpu time   16.0822: real time   16.1173
       DOS:  cpu time    0.0113: real time    0.0113
    CHARGE:  cpu time    5.2009: real time    5.2077
    MIXING:  cpu time    0.2947: real time    0.2997
    --------------------------------------------
      LOOP:  cpu time   34.5225: real time   34.5909

 eigenvalue-minimisations  :    96
 total energy-change (2. order) :-0.2563919E-02  (-0.4301084E-04)
 number of electron      23.9999998 magnetization 
 augmentation part        4.0445903 magnetization 

 Broyden mixing:
  rms(total) = 0.65634E-02    rms(broyden)= 0.65634E-02
  rms(prec ) = 0.69420E-02
  weight for this iteration     100.00

 eigenvalues of (default mixing * dielectric matrix)
  average eigenvalue GAMMA=   1.5230
  3.2603  2.5438  1.7583  1.7583  0.9320  0.9320  0.9273  0.9273  0.6673

 Free energy of the ion-electron system (eV)
  ---------------------------------------------------
  alpha Z        PSCENC =         0.03994862
  Ewald energy   TEWEN  =      1187.90659196
  -Hartree energ DENC   =     -2423.47332552
  -exchange      EXHF   =         0.00000000
  -V(xc)+E(xc)   XCENC  =       104.12233399
  PAW double counting   =      6103.08576689    -6118.34055544
  entropy T*S    EENTRO =        -0.00000000
  eigenvalues    EBANDS =      -358.41535991
  atomic energy  EATOM  =      1469.26766065
  Solvation  Ediel_sol  =         0.00000000
  ---------------------------------------------------
  free energy    TOTEN  =       -35.80693877 eV

  energy without entropy =      -35.80693877  energy(sigma->0) =      -35.80693877


--------------------------------------------------------------------------------------------------------




--------------------------------------- Iteration      1(  15)  ---------------------------------------


    POTLOK:  cpu time   12.8135: real time   12.8426
    SETDIJ:  cpu time    0.0402: real time    0.0402
     EDDAV:  cpu time   20.1306: real time   20.1748
       DOS:  cpu time    0.0093: real time    0.0093
    CHARGE:  cpu time    5.2721: real time    5.2789
    MIXING:  cpu time    0.3123: real time    0.3128
    --------------------------------------------
      LOOP:  cpu time   38.5779: real time   38.6585

 eigenvalue-minimisations  :   128
 total energy-change (2. order) :-0.8576389E-03  (-0.2441633E-05)
 number of electron      23.9999998 magnetization 
 augmentation part        4.0447371 magnetization 

 Broyden mixing:
  rms(total) = 0.30973E-02    rms(broyden)= 0.30973E-02
  rms(prec ) = 0.37576E-02
  weight for this iteration     100.00

 eigenvalues of (default mixing * dielectric matrix)
  average eigenvalue GAMMA=   1.6484
  4.4044  2.6038  2.0066  1.8836  1.0366  1.0366  0.9116  0.9116  0.9973  0.6919

 Free energy of the ion-electron system (eV)
  ---------------------------------------------------
  alpha Z        PSCENC =         0.03994862
  Ewald energy   TEWEN  =      1187.90659196
  -Hartree energ DENC   =     -2423.47635423
  -exchange      EXHF   =         0.00000000
  -V(xc)+E(xc)   XCENC  =       104.11969619
  PAW double counting   =      6102.16178654    -6117.41696227
  entropy T*S    EENTRO =        -0.00000000
  eigenvalues    EBANDS =      -358.41016387
  atomic energy  EATOM  =      1469.26766065
  Solvation  Ediel_sol  =         0.00000000
  ---------------------------------------------------
  free energy    TOTEN  =       -35.80779641 eV

  energy without entropy =      -35.80779641  energy(sigma->0) =      -35.80779641


--------------------------------------------------------------------------------------------------------




--------------------------------------- Iteration      1(  16)  ---------------------------------------


    POTLOK:  cpu time   12.9095: real time   12.9309
    SETDIJ:  cpu time    0.0402: real time    0.0402
     EDDAV:  cpu time   16.0917: real time   16.1228
       DOS:  cpu time    0.0065: real time    0.0065
    CHARGE:  cpu time    5.1680: real time    5.1821
    MIXING:  cpu time    0.3165: real time    0.3171
    --------------------------------------------
      LOOP:  cpu time   34.5324: real time   34.5996

 eigenvalue-minimisations  :    96
 total energy-change (2. order) :-0.2834536E-02  (-0.2915751E-04)
 number of electron      23.9999998 magnetization 
 augmentation part        4.0447658 magnetization 

 Broyden mixing:
  rms(total) = 0.18205E-02    rms(broyden)= 0.18205E-02
  rms(prec ) = 0.21270E-02
  weight for this iteration     100.00

 eigenvalues of (default mixing * dielectric matrix)
  average eigenvalue GAMMA=   1.7934
  6.0123  2.6095  2.6095  1.6066  1.6066  1.0067  1.0067  0.8871  0.8871  0.8359
  0.6593

 Free energy of the ion-electron system (eV)
  ---------------------------------------------------
  alpha Z        PSCENC =         0.03994862
  Ewald energy   TEWEN  =      1187.90659196
  -Hartree energ DENC   =     -2424.09739858
  -exchange      EXHF   =         0.00000000
  -V(xc)+E(xc)   XCENC  =       104.12196149
  PAW double counting   =      6098.84147886    -6114.09486121
  entropy T*S    EENTRO =        -0.00000000
  eigenvalues    EBANDS =      -357.79601273
  atomic energy  EATOM  =      1469.26766065
  Solvation  Ediel_sol  =         0.00000000
  ---------------------------------------------------
  free energy    TOTEN  =       -35.81063094 eV

  energy without entropy =      -35.81063094  energy(sigma->0) =      -35.81063094


--------------------------------------------------------------------------------------------------------




--------------------------------------- Iteration      1(  17)  ---------------------------------------


    POTLOK:  cpu time   12.8424: real time   12.8632
    SETDIJ:  cpu time    0.0403: real time    0.0403
     EDDAV:  cpu time   20.0835: real time   20.1216
       DOS:  cpu time    0.0102: real time    0.0102
    CHARGE:  cpu time    5.2623: real time    5.2691
    MIXING:  cpu time    0.3279: real time    0.3285
    --------------------------------------------
      LOOP:  cpu time   38.5667: real time   38.6330

 eigenvalue-minimisations  :   128
 total energy-change (2. order) :-0.1518833E-02  (-0.1306532E-04)
 number of electron      23.9999998 magnetization 
 augmentation part        4.0445189 magnetization 

 Broyden mixing:
  rms(total) = 0.30738E-02    rms(broyden)= 0.30738E-02
  rms(prec ) = 0.31317E-02
  weight for this iteration     100.00

 eigenvalues of (default mixing * dielectric matrix)
  average eigenvalue GAMMA=   1.8019
  6.2264  3.0013  2.4578  1.7788  1.7788  1.0027  1.0027  1.0448  0.8836  0.8836
  0.8643  0.6978

 Free energy of the ion-electron system (eV)
  ---------------------------------------------------
  alpha Z        PSCENC =         0.03994862
  Ewald energy   TEWEN  =      1187.90659196
  -Hartree energ DENC   =     -2424.42899859
  -exchange      EXHF   =         0.00000000
  -V(xc)+E(xc)   XCENC  =       104.12366049
  PAW double counting   =      6098.98617697    -6114.23932023
  entropy T*S    EENTRO =        -0.00000000
  eigenvalues    EBANDS =      -357.46786964
  atomic energy  EATOM  =      1469.26766065
  Solvation  Ediel_sol  =         0.00000000
  ---------------------------------------------------
  free energy    TOTEN  =       -35.81214978 eV

  energy without entropy =      -35.81214978  energy(sigma->0) =      -35.81214978


--------------------------------------------------------------------------------------------------------




--------------------------------------- Iteration      1(  18)  ---------------------------------------


    POTLOK:  cpu time   12.8624: real time   12.8860
    SETDIJ:  cpu time    0.0404: real time    0.0404
     EDDAV:  cpu time   20.0911: real time   20.1336
       DOS:  cpu time    0.0005: real time    0.0005
    CHARGE:  cpu time    5.2200: real time    5.2267
    MIXING:  cpu time    0.3518: real time    0.3524
    --------------------------------------------
      LOOP:  cpu time   38.5662: real time   38.6397

 eigenvalue-minimisations  :   128
 total energy-change (2. order) :-0.7313495E-03  (-0.2847384E-05)
 number of electron      23.9999998 magnetization 
 augmentation part        4.0444465 magnetization 

 Broyden mixing:
  rms(total) = 0.11480E-02    rms(broyden)= 0.11480E-02
  rms(prec ) = 0.12184E-02
  weight for this iteration     100.00

 eigenvalues of (default mixing * dielectric matrix)
  average eigenvalue GAMMA=   1.7748
  6.4210  3.2788  2.4383  2.0043  1.7162  1.1100  1.0578  1.0578  0.8976  0.8976
  0.7343  0.7294  0.7294

 Free energy of the ion-electron system (eV)
  ---------------------------------------------------
  alpha Z        PSCENC =         0.03994862
  Ewald energy   TEWEN  =      1187.90659196
  -Hartree energ DENC   =     -2424.45855390
  -exchange      EXHF   =         0.00000000
  -V(xc)+E(xc)   XCENC  =       104.12227158
  PAW double counting   =      6099.22265455    -6114.47483391
  entropy T*S    EENTRO =        -0.00000000
  eigenvalues    EBANDS =      -357.43862067
  atomic energy  EATOM  =      1469.26766065
  Solvation  Ediel_sol  =         0.00000000
  ---------------------------------------------------
  free energy    TOTEN  =       -35.81288113 eV

  energy without entropy =      -35.81288113  energy(sigma->0) =      -35.81288113


--------------------------------------------------------------------------------------------------------




--------------------------------------- Iteration      1(  19)  ---------------------------------------


    POTLOK:  cpu time   12.8638: real time   12.8845
    SETDIJ:  cpu time    0.0403: real time    0.0404
     EDDAV:  cpu time   12.1478: real time   12.1792
       DOS:  cpu time    0.0059: real time    0.0059
    CHARGE:  cpu time    5.2204: real time    5.2465
    MIXING:  cpu time    0.3525: real time    0.3532
    --------------------------------------------
      LOOP:  cpu time   30.6308: real time   30.7096

 eigenvalue-minimisations  :    64
 total energy-change (2. order) :-0.5266585E-03  (-0.1902660E-05)
 number of electron      23.9999998 magnetization 
 augmentation part        4.0444183 magnetization 

 Broyden mixing:
  rms(total) = 0.64587E-03    rms(broyden)= 0.64587E-03
  rms(prec ) = 0.69621E-03
  weight for this iteration     100.00

 eigenvalues of (default mixing * dielectric matrix)
  average eigenvalue GAMMA=   1.9280
  7.4412  3.7273  2.4428  2.4428  1.8276  1.8276  1.0370  1.0370  0.8952  0.8952
  0.9245  0.9245  0.8681  0.7016

 Free energy of the ion-electron system (eV)
  ---------------------------------------------------
  alpha Z        PSCENC =         0.03994862
  Ewald energy   TEWEN  =      1187.90659196
  -Hartree energ DENC   =     -2424.48782414
  -exchange      EXHF   =         0.00000000
  -V(xc)+E(xc)   XCENC  =       104.12137723
  PAW double counting   =      6099.54237088    -6114.79404370
  entropy T*S    EENTRO =        -0.00000000
  eigenvalues    EBANDS =      -357.40948926
  atomic energy  EATOM  =      1469.26766065
  Solvation  Ediel_sol  =         0.00000000
  ---------------------------------------------------
  free energy    TOTEN  =       -35.81340778 eV

  energy without entropy =      -35.81340778  energy(sigma->0) =      -35.81340778


--------------------------------------------------------------------------------------------------------




--------------------------------------- Iteration      1(  20)  ---------------------------------------


    POTLOK:  cpu time   12.8399: real time   12.8605
    SETDIJ:  cpu time    0.0403: real time    0.0403
     EDDAV:  cpu time   20.0909: real time   20.1303
       DOS:  cpu time    0.0032: real time    0.0032
    CHARGE:  cpu time    5.1696: real time    5.1761
    MIXING:  cpu time    0.3786: real time    0.3792
    --------------------------------------------
      LOOP:  cpu time   38.5224: real time   38.5896

 eigenvalue-minimisations  :   128
 total energy-change (2. order) :-0.4052208E-03  (-0.1563946E-05)
 number of electron      23.9999998 magnetization 
 augmentation part        4.0443950 magnetization 

 Broyden mixing:
  rms(total) = 0.59113E-03    rms(broyden)= 0.59113E-03
  rms(prec ) = 0.60455E-03
  weight for this iteration     100.00

 eigenvalues of (default mixing * dielectric matrix)
  average eigenvalue GAMMA=   1.9945
  8.5539  4.4107  2.5832  2.5832  1.9332  1.7617  1.0073  1.0073  0.9696  0.9696
  0.8966  0.8966  0.8460  0.7909  0.7075

 Free energy of the ion-electron system (eV)
  ---------------------------------------------------
  alpha Z        PSCENC =         0.03994862
  Ewald energy   TEWEN  =      1187.90659196
  -Hartree energ DENC   =     -2424.52529882
  -exchange      EXHF   =         0.00000000
  -V(xc)+E(xc)   XCENC  =       104.12074348
  PAW double counting   =      6099.39188356    -6114.64345043
  entropy T*S    EENTRO =        -0.00000000
  eigenvalues    EBANDS =      -357.37189201
  atomic energy  EATOM  =      1469.26766065
  Solvation  Ediel_sol  =         0.00000000
  ---------------------------------------------------
  free energy    TOTEN  =       -35.81381300 eV

  energy without entropy =      -35.81381300  energy(sigma->0) =      -35.81381300


--------------------------------------------------------------------------------------------------------




--------------------------------------- Iteration      1(  21)  ---------------------------------------


    POTLOK:  cpu time   12.8639: real time   12.8846
    SETDIJ:  cpu time    0.0402: real time    0.0402
     EDDAV:  cpu time   20.1551: real time   20.1968
       DOS:  cpu time    0.0169: real time    0.0169
    CHARGE:  cpu time    5.2909: real time    5.2977
    MIXING:  cpu time    0.3927: real time    0.3934
    --------------------------------------------
      LOOP:  cpu time   38.7596: real time   38.8297

 eigenvalue-minimisations  :   128
 total energy-change (2. order) :-0.1144666E-03  (-0.2255673E-06)
 number of electron      23.9999998 magnetization 
 augmentation part        4.0444099 magnetization 

 Broyden mixing:
  rms(total) = 0.28982E-03    rms(broyden)= 0.28982E-03
  rms(prec ) = 0.30165E-03
  weight for this iteration     100.00

 eigenvalues of (default mixing * dielectric matrix)
  average eigenvalue GAMMA=   1.9907
  8.3695  4.7046  2.5571  2.5571  1.7670  1.7670  1.7962  1.1299  1.1299  0.9626
  0.9626  0.8733  0.8733  0.9412  0.7298  0.7298

 Free energy of the ion-electron system (eV)
  ---------------------------------------------------
  alpha Z        PSCENC =         0.03994862
  Ewald energy   TEWEN  =      1187.90659196
  -Hartree energ DENC   =     -2424.53301540
  -exchange      EXHF   =         0.00000000
  -V(xc)+E(xc)   XCENC  =       104.12049191
  PAW double counting   =      6099.28061288    -6114.53231229
  entropy T*S    EENTRO =        -0.00000000
  eigenvalues    EBANDS =      -357.36390579
  atomic energy  EATOM  =      1469.26766065
  Solvation  Ediel_sol  =         0.00000000
  ---------------------------------------------------
  free energy    TOTEN  =       -35.81392747 eV

  energy without entropy =      -35.81392747  energy(sigma->0) =      -35.81392747


--------------------------------------------------------------------------------------------------------




--------------------------------------- Iteration      1(  22)  ---------------------------------------


    POTLOK:  cpu time   12.8933: real time   12.9140
    SETDIJ:  cpu time    0.0402: real time    0.0402
     EDDAV:  cpu time   16.1604: real time   16.1909
       DOS:  cpu time    0.0009: real time    0.0009
    CHARGE:  cpu time    5.1804: real time    5.1957
    MIXING:  cpu time    0.4181: real time    0.4188
    --------------------------------------------
      LOOP:  cpu time   34.6933: real time   34.7605

 eigenvalue-minimisations  :    96
 total energy-change (2. order) :-0.8099484E-04  (-0.7313913E-07)
 number of electron      23.9999998 magnetization 
 augmentation part        4.0444167 magnetization 

 Broyden mixing:
  rms(total) = 0.18642E-03    rms(broyden)= 0.18642E-03
  rms(prec ) = 0.19373E-03
  weight for this iteration     100.00

 eigenvalues of (default mixing * dielectric matrix)
  average eigenvalue GAMMA=   2.1282
  8.9253  5.5105  3.6971  2.6297  2.6297  1.9546  1.7809  0.9915  0.9915  0.9958
  0.9958  0.8626  0.8626  0.9342  0.9342  0.7690  0.7135

 Free energy of the ion-electron system (eV)
  ---------------------------------------------------
  alpha Z        PSCENC =         0.03994862
  Ewald energy   TEWEN  =      1187.90659196
  -Hartree energ DENC   =     -2424.52924959
  -exchange      EXHF   =         0.00000000
  -V(xc)+E(xc)   XCENC  =       104.12024815
  PAW double counting   =      6099.21190930    -6114.46375553
  entropy T*S    EENTRO =        -0.00000000
  eigenvalues    EBANDS =      -357.36736202
  atomic energy  EATOM  =      1469.26766065
  Solvation  Ediel_sol  =         0.00000000
  ---------------------------------------------------
  free energy    TOTEN  =       -35.81400847 eV

  energy without entropy =      -35.81400847  energy(sigma->0) =      -35.81400847


--------------------------------------------------------------------------------------------------------




--------------------------------------- Iteration      1(  23)  ---------------------------------------


    POTLOK:  cpu time   12.8147: real time   12.8352
    SETDIJ:  cpu time    0.0402: real time    0.0402
     EDDAV:  cpu time   16.0974: real time   16.1357
       DOS:  cpu time    0.0087: real time    0.0087
    CHARGE:  cpu time    5.2845: real time    5.2913
    MIXING:  cpu time    0.4233: real time    0.4241
    --------------------------------------------
      LOOP:  cpu time   34.6687: real time   34.7352

 eigenvalue-minimisations  :    96
 total energy-change (2. order) :-0.6766688E-04  (-0.8887449E-07)
 number of electron      23.9999998 magnetization 
 augmentation part        4.0444386 magnetization 

 Broyden mixing:
  rms(total) = 0.10541E-03    rms(broyden)= 0.10541E-03
  rms(prec ) = 0.10761E-03
  weight for this iteration     100.00

 eigenvalues of (default mixing * dielectric matrix)
  average eigenvalue GAMMA=   2.0703
  8.8892  5.7574  3.6212  2.5986  2.5986  1.9745  1.7388  1.0178  1.0178  0.9792
  0.9792  0.8884  0.8884  0.9977  0.9977  0.8053  0.8053  0.7104

 Free energy of the ion-electron system (eV)
  ---------------------------------------------------
  alpha Z        PSCENC =         0.03994862
  Ewald energy   TEWEN  =      1187.90659196
  -Hartree energ DENC   =     -2424.53157065
  -exchange      EXHF   =         0.00000000
  -V(xc)+E(xc)   XCENC  =       104.12004705
  PAW double counting   =      6099.01267037    -6114.26466390
  entropy T*S    EENTRO =        -0.00000000
  eigenvalues    EBANDS =      -357.36476023
  atomic energy  EATOM  =      1469.26766065
  Solvation  Ediel_sol  =         0.00000000
  ---------------------------------------------------
  free energy    TOTEN  =       -35.81407613 eV

  energy without entropy =      -35.81407613  energy(sigma->0) =      -35.81407613


--------------------------------------------------------------------------------------------------------




--------------------------------------- Iteration      1(  24)  ---------------------------------------


    POTLOK:  cpu time   12.8677: real time   12.8931
    SETDIJ:  cpu time    0.0402: real time    0.0402
     EDDAV:  cpu time   20.1117: real time   20.1517
       DOS:  cpu time    0.0127: real time    0.0127
    CHARGE:  cpu time    5.2280: real time    5.2347
    MIXING:  cpu time    0.4272: real time    0.4281
    --------------------------------------------
      LOOP:  cpu time   38.6876: real time   38.7605

 eigenvalue-minimisations  :   128
 total energy-change (2. order) :-0.7129986E-05  (-0.2337485E-08)
 number of electron      23.9999998 magnetization 
 augmentation part        4.0444323 magnetization 

 Broyden mixing:
  rms(total) = 0.72924E-04    rms(broyden)= 0.72924E-04
  rms(prec ) = 0.74963E-04
  weight for this iteration     100.00

 eigenvalues of (default mixing * dielectric matrix)
  average eigenvalue GAMMA=   2.1187
  9.2531  5.9226  3.9684  2.6580  2.3477  2.0298  1.8653  1.8653  1.3006  0.9940
  0.9940  0.8731  0.8731  0.9503  0.9503  0.9629  0.9629  0.7107  0.7729

 Free energy of the ion-electron system (eV)
  ---------------------------------------------------
  alpha Z        PSCENC =         0.03994862
  Ewald energy   TEWEN  =      1187.90659196
  -Hartree energ DENC   =     -2424.53226963
  -exchange      EXHF   =         0.00000000
  -V(xc)+E(xc)   XCENC  =       104.12008277
  PAW double counting   =      6099.07425857    -6114.32622170
  entropy T*S    EENTRO =        -0.00000000
  eigenvalues    EBANDS =      -357.36413449
  atomic energy  EATOM  =      1469.26766065
  Solvation  Ediel_sol  =         0.00000000
  ---------------------------------------------------
  free energy    TOTEN  =       -35.81408326 eV

  energy without entropy =      -35.81408326  energy(sigma->0) =      -35.81408326


--------------------------------------------------------------------------------------------------------




--------------------------------------- Iteration      1(  25)  ---------------------------------------


    POTLOK:  cpu time   12.8052: real time   12.8287
    SETDIJ:  cpu time    0.0403: real time    0.0403
     EDDAV:  cpu time   16.0606: real time   16.0940
       DOS:  cpu time    0.0026: real time    0.0026
    CHARGE:  cpu time    5.2499: real time    5.2569
    MIXING:  cpu time    0.4623: real time    0.4631
    --------------------------------------------
      LOOP:  cpu time   34.6209: real time   34.6857

 eigenvalue-minimisations  :    96
 total energy-change (2. order) :-0.1509535E-04  (-0.5664745E-08)
 number of electron      23.9999998 magnetization 
 augmentation part        4.0444259 magnetization 

 Broyden mixing:
  rms(total) = 0.29062E-04    rms(broyden)= 0.29062E-04
  rms(prec ) = 0.30160E-04
  weight for this iteration     100.00

 eigenvalues of (default mixing * dielectric matrix)
  average eigenvalue GAMMA=   2.1707
  9.3741  6.4013  4.4162  2.7693  2.7644  2.7644  2.0069  1.7740  1.0599  1.0599
  0.9896  0.9896  0.8772  0.8772  0.9949  0.9949  0.9021  0.9021  0.7107  0.7853

 Free energy of the ion-electron system (eV)
  ---------------------------------------------------
  alpha Z        PSCENC =         0.03994862
  Ewald energy   TEWEN  =      1187.90659196
  -Hartree energ DENC   =     -2424.53530749
  -exchange      EXHF   =         0.00000000
  -V(xc)+E(xc)   XCENC  =       104.12014468
  PAW double counting   =      6099.12055107    -6114.37245349
  entropy T*S    EENTRO =        -0.00000000
  eigenvalues    EBANDS =      -357.36123435
  atomic energy  EATOM  =      1469.26766065
  Solvation  Ediel_sol  =         0.00000000
  ---------------------------------------------------
  free energy    TOTEN  =       -35.81409836 eV

  energy without entropy =      -35.81409836  energy(sigma->0) =      -35.81409836


--------------------------------------------------------------------------------------------------------




--------------------------------------- Iteration      1(  26)  ---------------------------------------


    POTLOK:  cpu time   12.8499: real time   12.8711
    SETDIJ:  cpu time    0.0402: real time    0.0403
     EDDAV:  cpu time   20.0938: real time   20.1369
       DOS:  cpu time    0.0019: real time    0.0019
    CHARGE:  cpu time    5.1643: real time    5.1751
    MIXING:  cpu time    0.4644: real time    0.4654
    --------------------------------------------
      LOOP:  cpu time   38.6145: real time   38.6907

 eigenvalue-minimisations  :   128
 total energy-change (2. order) :-0.4467397E-05  (-0.2587893E-08)
 number of electron      23.9999998 magnetization 
 augmentation part        4.0444235 magnetization 

 Broyden mixing:
  rms(total) = 0.22415E-04    rms(broyden)= 0.22415E-04
  rms(prec ) = 0.22997E-04
  weight for this iteration     100.00

 eigenvalues of (default mixing * dielectric matrix)
  average eigenvalue GAMMA=   2.1571
  9.4829  6.5156  4.4623  3.1420  2.5605  2.5605  1.8592  1.8592  1.4205  1.4205
  1.0655  1.0655  0.9872  0.9872  0.8710  0.8710  0.9026  0.9026  0.7113  0.8778
  0.7733

 Free energy of the ion-electron system (eV)
  ---------------------------------------------------
  alpha Z        PSCENC =         0.03994862
  Ewald energy   TEWEN  =      1187.90659196
  -Hartree energ DENC   =     -2424.53599180
  -exchange      EXHF   =         0.00000000
  -V(xc)+E(xc)   XCENC  =       104.12016434
  PAW double counting   =      6099.15292121    -6114.40480275
  entropy T*S    EENTRO =        -0.00000000
  eigenvalues    EBANDS =      -357.36059505
  atomic energy  EATOM  =      1469.26766065
  Solvation  Ediel_sol  =         0.00000000
  ---------------------------------------------------
  free energy    TOTEN  =       -35.81410283 eV

  energy without entropy =      -35.81410283  energy(sigma->0) =      -35.81410283


--------------------------------------------------------------------------------------------------------




--------------------------------------- Iteration      1(  27)  ---------------------------------------


    POTLOK:  cpu time   12.8137: real time   12.8403
    SETDIJ:  cpu time    0.0404: real time    0.0404
     EDDAV:  cpu time   12.1704: real time   12.1943
       DOS:  cpu time    0.0070: real time    0.0070
    CHARGE:  cpu time    5.2756: real time    5.2835
    MIXING:  cpu time    0.4988: real time    0.4999
    --------------------------------------------
      LOOP:  cpu time   30.8059: real time   30.8654

 eigenvalue-minimisations  :    64
 total energy-change (2. order) :-0.2615783E-05  (-0.2413641E-08)
 number of electron      23.9999998 magnetization 
 augmentation part        4.0444257 magnetization 

 Broyden mixing:
  rms(total) = 0.11590E-04    rms(broyden)= 0.11590E-04
  rms(prec ) = 0.11952E-04
  weight for this iteration     100.00

 eigenvalues of (default mixing * dielectric matrix)
  average eigenvalue GAMMA=   2.1880
  9.5967  6.8558  4.8866  3.3084  2.6019  2.5223  2.5223  1.9686  1.8579  1.0204
  1.0204  1.0596  1.0596  0.9958  0.9958  0.8738  0.8738  0.8757  0.8757  0.8895
  0.7116  0.7630

 Free energy of the ion-electron system (eV)
  ---------------------------------------------------
  alpha Z        PSCENC =         0.03994862
  Ewald energy   TEWEN  =      1187.90659196
  -Hartree energ DENC   =     -2424.53565493
  -exchange      EXHF   =         0.00000000
  -V(xc)+E(xc)   XCENC  =       104.12013616
  PAW double counting   =      6099.13371845    -6114.38560174
  entropy T*S    EENTRO =        -0.00000000
  eigenvalues    EBANDS =      -357.36090460
  atomic energy  EATOM  =      1469.26766065
  Solvation  Ediel_sol  =         0.00000000
  ---------------------------------------------------
  free energy    TOTEN  =       -35.81410544 eV

  energy without entropy =      -35.81410544  energy(sigma->0) =      -35.81410544


--------------------------------------------------------------------------------------------------------




--------------------------------------- Iteration      1(  28)  ---------------------------------------


    POTLOK:  cpu time   12.8259: real time   12.8480
    SETDIJ:  cpu time    0.0403: real time    0.0403
     EDDAV:  cpu time   20.1229: real time   20.1610
       DOS:  cpu time    0.0268: real time    0.0268
    CHARGE:  cpu time    5.2243: real time    5.2309
    MIXING:  cpu time    0.4998: real time    0.5009
    --------------------------------------------
      LOOP:  cpu time   38.7401: real time   38.8078

 eigenvalue-minimisations  :   128
 total energy-change (2. order) :-0.1159600E-05  (-0.2434515E-08)
 number of electron      23.9999998 magnetization 
 augmentation part        4.0444262 magnetization 

 Broyden mixing:
  rms(total) = 0.86083E-05    rms(broyden)= 0.86083E-05
  rms(prec ) = 0.87961E-05
  weight for this iteration     100.00

 eigenvalues of (default mixing * dielectric matrix)
  average eigenvalue GAMMA=   2.2307
  9.6242  7.1477  5.1325  3.8743  2.8669  2.4550  2.4550  1.9403  1.9403  1.4444
  1.4444  0.9934  0.9934  1.0529  1.0529  0.8725  0.8725  0.9092  0.9092  0.9659
  0.8772  0.7113  0.7712

 Free energy of the ion-electron system (eV)
  ---------------------------------------------------
  alpha Z        PSCENC =         0.03994862
  Ewald energy   TEWEN  =      1187.90659196
  -Hartree energ DENC   =     -2424.53564658
  -exchange      EXHF   =         0.00000000
  -V(xc)+E(xc)   XCENC  =       104.12013014
  PAW double counting   =      6099.12905214    -6114.38094226
  entropy T*S    EENTRO =        -0.00000000
  eigenvalues    EBANDS =      -357.36090126
  atomic energy  EATOM  =      1469.26766065
  Solvation  Ediel_sol  =         0.00000000
  ---------------------------------------------------
  free energy    TOTEN  =       -35.81410660 eV

  energy without entropy =      -35.81410660  energy(sigma->0) =      -35.81410660


--------------------------------------------------------------------------------------------------------




--------------------------------------- Iteration      1(  29)  ---------------------------------------


    POTLOK:  cpu time   12.8346: real time   12.8586
    SETDIJ:  cpu time    0.0402: real time    0.0402
     EDDAV:  cpu time   12.1778: real time   12.2034
       DOS:  cpu time    0.0051: real time    0.0051
    CHARGE:  cpu time    5.2669: real time    5.2738
    MIXING:  cpu time    0.5393: real time    0.5415
    --------------------------------------------
      LOOP:  cpu time   30.8637: real time   30.9225

 eigenvalue-minimisations  :    64
 total energy-change (2. order) :-0.7880244E-06  (-0.2180771E-08)
 number of electron      23.9999998 magnetization 
 augmentation part        4.0444256 magnetization 

 Broyden mixing:
  rms(total) = 0.36580E-05    rms(broyden)= 0.36580E-05
  rms(prec ) = 0.37712E-05
  weight for this iteration     100.00

 eigenvalues of (default mixing * dielectric matrix)
  average eigenvalue GAMMA=   2.2485
  9.6208  7.4935  5.5309  4.2233  2.7465  2.4386  2.4386  2.4222  1.8915  1.8915
  1.2330  1.1156  1.0161  1.0161  0.9945  0.9945  0.8745  0.8745  0.9812  0.9012
  0.9012  0.8816  0.7113  0.7713

 Free energy of the ion-electron system (eV)
  ---------------------------------------------------
  alpha Z        PSCENC =         0.03994862
  Ewald energy   TEWEN  =      1187.90659196
  -Hartree energ DENC   =     -2424.53574718
  -exchange      EXHF   =         0.00000000
  -V(xc)+E(xc)   XCENC  =       104.12013496
  PAW double counting   =      6099.13090242    -6114.38279815
  entropy T*S    EENTRO =        -0.00000000
  eigenvalues    EBANDS =      -357.36080065
  atomic energy  EATOM  =      1469.26766065
  Solvation  Ediel_sol  =         0.00000000
  ---------------------------------------------------
  free energy    TOTEN  =       -35.81410739 eV

  energy without entropy =      -35.81410739  energy(sigma->0) =      -35.81410739


--------------------------------------------------------------------------------------------------------




--------------------------------------- Iteration      1(  30)  ---------------------------------------


    POTLOK:  cpu time   12.8356: real time   12.8562
    SETDIJ:  cpu time    0.0402: real time    0.0402
     EDDAV:  cpu time   20.0961: real time   20.1433
       DOS:  cpu time    0.0081: real time    0.0081
    CHARGE:  cpu time    5.1960: real time    5.2026
    MIXING:  cpu time    0.5517: real time    0.5527
    --------------------------------------------
      LOOP:  cpu time   38.7276: real time   38.8032

 eigenvalue-minimisations  :   128
 total energy-change (2. order) :-0.2594661E-06  (-0.1801773E-08)
 number of electron      23.9999998 magnetization 
 augmentation part        4.0444259 magnetization 

 Broyden mixing:
  rms(total) = 0.20589E-05    rms(broyden)= 0.20589E-05
  rms(prec ) = 0.21317E-05
  weight for this iteration     100.00

 eigenvalues of (default mixing * dielectric matrix)
  average eigenvalue GAMMA=   2.2034
  9.6299  7.4911  5.6162  4.1642  2.7836  2.5009  2.4225  2.4225  1.8698  1.8698
  1.0868  1.0868  1.1328  1.1328  0.9841  0.9841  0.8721  0.8721  0.7113  0.9349
  0.9349  0.9535  0.9535  0.7719  0.9028

 Free energy of the ion-electron system (eV)
  ---------------------------------------------------
  alpha Z        PSCENC =         0.03994862
  Ewald energy   TEWEN  =      1187.90659196
  -Hartree energ DENC   =     -2424.53567945
  -exchange      EXHF   =         0.00000000
  -V(xc)+E(xc)   XCENC  =       104.12013120
  PAW double counting   =      6099.12888668    -6114.38078204
  entropy T*S    EENTRO =        -0.00000000
  eigenvalues    EBANDS =      -357.36086526
  atomic energy  EATOM  =      1469.26766065
  Solvation  Ediel_sol  =         0.00000000
  ---------------------------------------------------
  free energy    TOTEN  =       -35.81410765 eV

  energy without entropy =      -35.81410765  energy(sigma->0) =      -35.81410765


--------------------------------------------------------------------------------------------------------




--------------------------------------- Iteration      1(  31)  ---------------------------------------


    POTLOK:  cpu time   12.7921: real time   12.8129
    SETDIJ:  cpu time    0.0402: real time    0.0402
     EDDAV:  cpu time   20.0571: real time   20.1147
       DOS:  cpu time    0.0071: real time    0.0071
    --------------------------------------------
      LOOP:  cpu time   32.8965: real time   32.9749

 eigenvalue-minimisations  :   128
 total energy-change (2. order) :-0.8843654E-07  (-0.1690067E-08)
 number of electron      23.9999998 magnetization 
 augmentation part        4.0444259 magnetization 

 Free energy of the ion-electron system (eV)
  ---------------------------------------------------
  alpha Z        PSCENC =         0.03994862
  Ewald energy   TEWEN  =      1187.90659196
  -Hartree energ DENC   =     -2424.53569421
  -exchange      EXHF   =         0.00000000
  -V(xc)+E(xc)   XCENC  =       104.12013130
  PAW double counting   =      6099.12975201    -6114.38164623
  entropy T*S    EENTRO =        -0.00000000
  eigenvalues    EBANDS =      -357.36085184
  atomic energy  EATOM  =      1469.26766065
  Solvation  Ediel_sol  =         0.00000000
  ---------------------------------------------------
  free energy    TOTEN  =       -35.81410774 eV

  energy without entropy =      -35.81410774  energy(sigma->0) =      -35.81410774


--------------------------------------------------------------------------------------------------------




 average (electrostatic) potential at core
  the test charge radii are     0.6256  0.8471  0.8742
  (the norm of the test charge is              1.0000)
       1 -41.2852       2 -41.2814       3 -88.5293       4 -92.3700       5 -92.5013
       6 -90.5444
 
 
 
 E-fermi :  -6.9687     XC(G=0):  -0.0380     alpha+bet : -0.0095


 k-point     1 :       0.0000    0.0000    0.0000
  band No.  band energies     occupation 
      1     -29.0643      2.00000
      2     -27.9958      2.00000
      3     -25.3494      2.00000
      4     -13.2718      2.00000
      5     -13.0106      2.00000
      6     -12.3615      2.00000
      7     -12.3589      2.00000
      8     -11.9663      2.00000
      9      -8.8377      2.00000
     10      -8.6908      2.00000
     11      -8.6906      2.00000
     12      -7.0828      2.00000
     13      -1.0348      0.00000
     14      -0.5377      0.00000
     15      -0.2694      0.00000
     16      -0.2548      0.00000
     17       0.0015      0.00000
     18       0.0965      0.00000
     19       0.1108      0.00000
     20       0.1159      0.00000
     21       0.1182      0.00000
     22       0.1250      0.00000
     23       0.1458      0.00000
     24       0.1855      0.00000
     25       0.2176      0.00000
     26       0.2371      0.00000
     27       0.2374      0.00000
     28       0.2384      0.00000
     29       0.2397      0.00000
     30       0.2411      0.00000
     31       0.2423      0.00000
     32       0.2434      0.00000


--------------------------------------------------------------------------------------------------------


 soft charge-density along one line, spin component            1
         0         1         2         3         4         5         6         7         8         9
 total charge-density along one line
 
 pseudopotential strength for first ion, spin component:            1
 -2.338  -3.710   0.013  -0.020   0.001
 -3.710  -5.722   0.026  -0.041   0.001
  0.013   0.026  -0.117  -0.014   0.001
 -0.020  -0.041  -0.014  -0.105  -0.001
  0.001   0.001   0.001  -0.001  -0.129
 total augmentation occupancy for first ion, spin component:            1
  2.829  -0.512  -0.599   0.858  -0.032
 -0.512   0.213   0.082  -0.093   0.004
 -0.599   0.082   0.182  -0.167   0.005
  0.858  -0.093  -0.167   0.309  -0.009
 -0.032   0.004   0.005  -0.009   0.103


------------------------ aborting loop because EDIFF is reached ----------------------------------------



 DIPCOR: dipole corrections for dipol
 direction  1 min pos   353, direction  2 min pos   397, direction  3 min pos   375,
 dipolmoment          -0.014065     -0.436562      0.016875 electrons x Angstroem
 Tr[quadrupol]         9.598361

 energy correction for charged system         0.000000 eV
 dipol+quadrupol energy correction            0.000134 eV
 added-field ion interaction          0.000000 eV  (added to PSCEN)

 
  *************** adding dipol energy to TOTEN NOW **************** 
    CHARGE:  cpu time    5.2710: real time    5.2784
    FORLOC:  cpu time    0.5361: real time    0.5371
    FORNL :  cpu time    0.5070: real time    0.5077
    STRESS:  cpu time   12.6155: real time   12.6407
    FORHAR:  cpu time    3.3298: real time    3.3353
    MIXING:  cpu time    0.5812: real time    0.5823
    OFIELD:  cpu time    0.0000: real time    0.0000

  Hirshfeld charges:
            ion         q(e)     
   ------------------------------
      1     H           0.145
      2     H           0.145
      3     C           0.287
      4     O          -0.134
      5     O          -0.163
      6     O          -0.281

  Hirshfeld-I charges:
            ion         q(e)        dq(e)    
   ------------------------------------------
      1     H           0.450      0.174E-04
      2     H           0.450      0.175E-04
      3     C           0.826     -0.124E-04
      4     O          -0.376      0.908E-05
      5     O          -0.440      0.567E-05
      6     O          -0.910     -0.372E-04

   Hirshfeld-I converged in  20 cycles. Convergence criterion |dq|< 0.500E-04 e

  Atomic reference data used in the T-S method for vdW correction:
            C6at              R0at           ALPHAat      REFSTATE
            (au)              (au)            (au)                
   ---------------------------------------------------------------
   H           6.500          3.099          4.500         0
   C          46.600          3.590         12.000         0
   O          15.600          3.194          5.400         0

  Tkatchenko/Scheffler method for vdW energy calculation
  ---------------------------------------------------------------------------------------------

  Parameters of vdW forcefield:
            C6ts              R0ts           ALPHAts        RELVOL
            (au)              (au)            (au)                
   ---------------------------------------------------------------
   H           0.637          2.104          1.409          0.31305792
   H           0.634          2.103          1.406          0.31242566
   C           9.445          2.752          5.402          0.45019489
   O          18.227          3.278          5.837          1.08091255
   O          19.060          3.302          5.969          1.10533560
   O          27.838          3.517          7.214          1.33584709

  vdW correction parametrized for the method pbe       

  IVDW =  21
  VDW_RADIUS =    50.000 A
  VDW_IDAMPF =  0
  VDW_S6 =     1.000
  VDW_SR =     0.950
  VDW_D =    20.000
  LVDW_ONECELL = F F F
  LVDW_SAMETYPE T T T
  LVDW_EWALD = F

  Number of pair interactions contributing to vdW energy:     323
  Edisp (eV):   -0.00966
    FORVDW:  cpu time  102.0386: real time  102.0969

  FORCE on cell =-STRESS in cart. coord.  units (eV):
  Direction    XX          YY          ZZ          XY          YZ          ZX
  --------------------------------------------------------------------------------------
  Alpha Z     0.03995     0.03995     0.03995
  Ewald    -112.74708  1287.81810    12.83571     3.03760     1.48059    -1.45437
  Hartree   511.49444  1379.50594   533.53533     0.84243    -0.18793    -0.25730
  E(xc)    -110.82586  -108.25831  -110.34552     0.01060     0.00874    -0.00559
  Local    -903.36466 -3071.90769 -1011.45196    -3.05500    -0.50905     1.25292
  n-local    75.34552    59.46971    70.47759    -0.13600    -0.05632     0.05798
  augment   138.76347   125.61770   131.27010    -0.16046    -0.14654     0.08712
  Kinetic   401.29309   339.15222   375.98883    -0.49403    -0.52932     0.29212
  Fock        0.00000     0.00000     0.00000     0.00000     0.00000     0.00000
  vdW        -0.00000    -0.04364    -0.00031    -0.00015     0.00039     0.00001
  -------------------------------------------------------------------------------------
  Total      -0.00113    11.39398     2.34971     0.04500     0.06056    -0.02712
  in kB      -0.00004     0.42578     0.08781     0.00168     0.00226    -0.00101
  external pressure =        0.17 kB  Pullay stress =        0.00 kB


 VOLUME and BASIS-vectors are now :
 -----------------------------------------------------------------------------
  energy-cutoff  :     1000.00
  volume of cell :    42875.00
      direct lattice vectors                 reciprocal lattice vectors
    35.000000000  0.000000000  0.000000000     0.028571429  0.000000000  0.000000000
     0.000000000 35.000000000  0.000000000     0.000000000  0.028571429  0.000000000
     0.000000000  0.000000000 35.000000000     0.000000000  0.000000000  0.028571429

  length of vectors
    35.000000000 35.000000000 35.000000000     0.028571429  0.028571429  0.028571429


 FORCES acting on ions
    electron-ion (+dipol)            ewald-force                    non-local-force                 convergence-correction
 -----------------------------------------------------------------------------------------------
   -.279E+01 -.626E+02 0.776E+02   0.307E+01 0.678E+02 -.857E+02   -.234E+00 -.423E+01 0.650E+01   0.438E-07 -.680E-07 -.210E-06
   -.119E+01 -.691E+02 -.724E+02   0.131E+01 0.750E+02 0.800E+02   -.100E+00 -.482E+01 -.607E+01   0.422E-07 -.538E-07 0.162E-06
   0.284E-01 0.324E+02 -.729E-01   -.308E-01 -.315E+02 0.620E-01   0.133E-02 -.695E+00 0.107E-01   -.345E-07 0.890E-06 -.344E-07
   0.107E+00 -.159E+03 -.186E+00   -.117E+00 0.248E+03 0.257E+00   0.951E-02 -.857E+02 -.760E-01   0.828E-08 -.657E-05 -.213E-06
   0.196E-01 0.288E+03 -.399E-01   -.225E-01 -.374E+03 0.425E-01   0.333E-02 0.823E+02 -.139E-02   -.276E-06 0.689E-06 0.191E-06
   0.175E+01 -.851E+02 -.214E+01   -.422E+01 0.155E+02 0.540E+01   0.240E+01 0.681E+02 -.316E+01   0.248E-06 -.413E-07 -.172E-06
 -----------------------------------------------------------------------------------------------
   -.208E+01 -.550E+02 0.280E+01   0.000E+00 -.355E-13 0.266E-14   0.208E+01 0.550E+02 -.280E+01   0.321E-07 -.515E-05 -.277E-06
 
 
 POSITION                                       TOTAL-FORCE (eV/Angst)
 -----------------------------------------------------------------------------------
      0.02970      4.31265     34.21499         0.053399      0.988007     -1.602665
      0.01365      4.38454      0.72944         0.020296      1.146304      1.500739
      0.00000      0.08826      0.00000        -0.001088      0.136637     -0.000283
      0.00000      1.25848      0.00000        -0.000243      3.036377     -0.005466
      0.00000     33.91804      0.00000         0.000390     -3.765342      0.001170
      0.00000      3.75848      0.00000        -0.072755     -1.541983      0.106504
 -----------------------------------------------------------------------------------
    total drift:                                0.000005      0.000003     -0.000011


--------------------------------------------------------------------------------------------------------



  FREE ENERGIE OF THE ION-ELECTRON SYSTEM (eV)
  ---------------------------------------------------
  free  energy   TOTEN  =       -35.82363176 eV

  energy  without entropy=      -35.82363176  energy(sigma->0) =      -35.82363176
 


--------------------------------------------------------------------------------------------------------


    POTLOK:  cpu time   14.0063: real time   14.0278


--------------------------------------------------------------------------------------------------------


 writing wavefunctions
     LOOP+:  cpu time 1433.7052: real time 1436.2819
    4ORBIT:  cpu time    0.0000: real time    0.0000

 total amount of memory used by VASP MPI-rank0  4216433. kBytes
=======================================================================

   base      :      30000. kBytes
   nonl-proj :     443298. kBytes
   fftplans  :     676185. kBytes
   grid      :    3042313. kBytes
   one-center:          9. kBytes
   wavefun   :      24628. kBytes
 
  
  
 General timing and accounting informations for this job:
 ========================================================
  
                  Total CPU time used (sec):     2558.179
                            User time (sec):     2395.863
                          System time (sec):      162.317
                         Elapsed time (sec):     2565.342
  
                   Maximum memory used (kb):     5615324.
                   Average memory used (kb):           0.
  
                          Minor page faults:     80805292
                          Major page faults:          938
                 Voluntary context switches:        17654
