 vasp.6.1.2 22Jul20 (build Jan  6 2021 09:55:43) gamma-only                      
 executed on             LinuxPGI date 2023.10.20  14:35:02
 running on   32 total cores
 distrk:  each k-point on   32 cores,    1 groups
 distr:  one band on NCORE=   1 cores,   32 groups


--------------------------------------------------------------------------------------------------------


 INCAR:
 POTCAR:    PAW_PBE H_s 15May2010                 
 POTCAR:    PAW_PBE C_s 06Sep2000                 
 POTCAR:    PAW_PBE O_s 07Sep2000                 
 -----------------------------------------------------------------------------
|                                                                             |
|           W    W    AA    RRRRR   N    N  II  N    N   GGGG   !!!           |
|           W    W   A  A   R    R  NN   N  II  NN   N  G    G  !!!           |
|           W    W  A    A  R    R  N N  N  II  N N  N  G       !!!           |
|           W WW W  AAAAAA  RRRRR   N  N N  II  N  N N  G  GGG   !            |
|           WW  WW  A    A  R   R   N   NN  II  N   NN  G    G                |
|           W    W  A    A  R    R  N    N  II  N    N   GGGG   !!!           |
|                                                                             |
|     For optimal performance we recommend to set                             |
|       NCORE = 4 - approx SQRT(number of cores).                             |
|     NCORE specifies how many cores store one orbital (NPAR=cpu/NCORE).      |
|     This setting can greatly improve the performance of VASP for DFT.       |
|     The default, NCORE=1 might be grossly inefficient on modern             |
|     multi-core architectures or massively parallel machines. Do your        |
|     own testing!!!!                                                         |
|     Unfortunately you need to use the default for GW and RPA                |
|     calculations (for HF NCORE is supported but not extensively tested      |
|     yet).                                                                   |
|                                                                             |
 -----------------------------------------------------------------------------

 POTCAR:    PAW_PBE H_s 15May2010                 
   VRHFIN =H: ultrasoft test                                                                        
   LEXCH  = PE                                                                                      
   EATOM  =    12.4884 eV,    0.9179 Ry                                                             
                                                                                                    
   TITEL  = PAW_PBE H_s 15May2010                                                                   
   LULTRA =        F    use ultrasoft PP ?                                                          
   IUNSCR =        0    unscreen: 0-lin 1-nonlin 2-no                                               
   RPACOR =    0.000    partial core radius                                                         
   POMASS =    1.000; ZVAL   =    1.000    mass and valenz                                          
   RCORE  =    1.300    outmost cutoff radius                                                       
   RWIGS  =    0.700; RWIGS  =    0.370    wigner-seitz radius (au A)                               
   ENMAX  =  200.000; ENMIN  =  150.000 eV                                                          
   RCLOC  =    0.701    cutoff for local pot                                                        
   LCOR   =        T    correct aug charges                                                         
   LPAW   =        T    paw PP                                                                      
   EAUG   =  300.000                                                                                
   RMAX   =    1.330    core radius for proj-oper                                                   
   RAUG   =    1.200    factor for augmentation sphere                                              
   RDEP   =    1.337    radius for radial grids                                                     
   RDEPT  =    1.114    core radius for aug-charge                                                  
                                                                                                    
   Atomic configuration                                                                             
    2 entries                                                                                       
     n  l   j            E        occ.                                                              
     1  0  0.50        -6.4927   1.0000                                                             
     2  1  0.50        -3.4015   0.0000                                                             
   Description                                                                                      
     l       E           TYP  RCUT    TYP  RCUT                                                     
     0     -6.4927494     23  1.300                                                                 
     0      6.8029130     23  1.300                                                                 
     1     -4.0817478     23  1.300                                                                 
  local pseudopotential read in
  atomic valenz-charges read in
  non local Contribution for L=            0  read in
    real space projection operators read in
  non local Contribution for L=            0  read in
    real space projection operators read in
  non local Contribution for L=            1  read in
    real space projection operators read in
    PAW grid and wavefunctions read in
 
   number of l-projection  operators is LMAX  =            3
   number of lm-projection operators is LMMAX =            5
 
 POTCAR:    PAW_PBE C_s 06Sep2000                 
   VRHFIN =C: s2p2                                                                                  
   LEXCH  = PE                                                                                      
   EATOM  =   147.1560 eV,   10.8157 Ry                                                             
                                                                                                    
   TITEL  = PAW_PBE C_s 06Sep2000                                                                   
   LULTRA =        F    use ultrasoft PP ?                                                          
   IUNSCR =        0    unscreen: 0-lin 1-nonlin 2-no                                               
   RPACOR =    0.000    partial core radius                                                         
   POMASS =   12.011; ZVAL   =    4.000    mass and valenz                                          
   RCORE  =    1.850    outmost cutoff radius                                                       
   RWIGS  =    1.890; RWIGS  =    1.000    wigner-seitz radius (au A)                               
   ENMAX  =  273.911; ENMIN  =  205.433 eV                                                          
   RCLOC  =    0.804    cutoff for local pot                                                        
   LCOR   =        T    correct aug charges                                                         
   LPAW   =        T    paw PP                                                                      
   EAUG   =  439.243                                                                                
   DEXC   =    0.000                                                                                
   RMAX   =    1.897    core radius for proj-oper                                                   
   RAUG   =    1.300    factor for augmentation sphere                                              
   RDEP   =    1.940    radius for radial grids                                                     
   RDEPT  =    1.573    core radius for aug-charge                                                  
                                                                                                    
   Atomic configuration                                                                             
    4 entries                                                                                       
     n  l   j            E        occ.                                                              
     1  0  0.50      -273.3789   2.0000                                                             
     2  0  0.50       -13.7508   2.0000                                                             
     2  1  0.50        -5.2854   2.0000                                                             
     3  2  1.50        -1.3606   0.0000                                                             
   Description                                                                                      
     l       E           TYP  RCUT    TYP  RCUT                                                     
     0    -13.7508457     23  1.500                                                                 
     0    -11.0934578     23  1.500                                                                 
     1     -5.2854381     23  1.850                                                                 
     1     -1.3099858     23  1.850                                                                 
  local pseudopotential read in
  atomic valenz-charges read in
  non local Contribution for L=            0  read in
    real space projection operators read in
  non local Contribution for L=            0  read in
    real space projection operators read in
  non local Contribution for L=            1  read in
    real space projection operators read in
  non local Contribution for L=            1  read in
    real space projection operators read in
    PAW grid and wavefunctions read in
 
   number of l-projection  operators is LMAX  =            4
   number of lm-projection operators is LMMAX =            8
 
 POTCAR:    PAW_PBE O_s 07Sep2000                 
   VRHFIN =O: s2p4                                                                                  
   LEXCH  = PE                                                                                      
   EATOM  =   432.3788 eV,   31.7789 Ry                                                             
                                                                                                    
   TITEL  = PAW_PBE O_s 07Sep2000                                                                   
   LULTRA =        F    use ultrasoft PP ?                                                          
   IUNSCR =        0    unscreen: 0-lin 1-nonlin 2-no                                               
   RPACOR =    0.000    partial core radius                                                         
   POMASS =   16.000; ZVAL   =    6.000    mass and valenz                                          
   RCORE  =    1.850    outmost cutoff radius                                                       
   RWIGS  =    1.700; RWIGS  =    0.900    wigner-seitz radius (au A)                               
   ENMAX  =  282.853; ENMIN  =  212.140 eV                                                          
   RCLOC  =    0.804    cutoff for local pot                                                        
   LCOR   =        T    correct aug charges                                                         
   LPAW   =        T    paw PP                                                                      
   EAUG   =  412.352                                                                                
   RMAX   =    1.897    core radius for proj-oper                                                   
   RAUG   =    1.300    factor for augmentation sphere                                              
   RDEP   =    1.878    radius for radial grids                                                     
   RDEPT  =    1.572    core radius for aug-charge                                                  
                                                                                                    
   Atomic configuration                                                                             
    4 entries                                                                                       
     n  l   j            E        occ.                                                              
     1  0  0.50      -514.6923   2.0000                                                             
     2  0  0.50       -23.9615   2.0000                                                             
     2  1  0.50        -9.0305   4.0000                                                             
     3  2  1.50        -1.3606   0.0000                                                             
   Description                                                                                      
     l       E           TYP  RCUT    TYP  RCUT                                                     
     0    -23.9615315     23  1.500                                                                 
     0    -25.3221141     23  1.500                                                                 
     1     -9.0304908     23  1.850                                                                 
     1     -7.3935399     23  1.850                                                                 
  local pseudopotential read in
  atomic valenz-charges read in
  non local Contribution for L=            0  read in
    real space projection operators read in
  non local Contribution for L=            0  read in
    real space projection operators read in
  non local Contribution for L=            1  read in
    real space projection operators read in
  non local Contribution for L=            1  read in
    real space projection operators read in
    PAW grid and wavefunctions read in
 
   number of l-projection  operators is LMAX  =            4
   number of lm-projection operators is LMMAX =            8
 
  PAW_PBE H_s 15May2010                 :
 energy of atom  1       EATOM=  -12.4884
 kinetic energy error for atom=    0.0000 (will be added to EATOM!!)
  PAW_PBE C_s 06Sep2000                 :
 energy of atom  2       EATOM= -147.1560
 kinetic energy error for atom=    0.0002 (will be added to EATOM!!)
  PAW_PBE O_s 07Sep2000                 :
 energy of atom  3       EATOM= -432.3788
 kinetic energy error for atom=    0.0004 (will be added to EATOM!!)
 
 
 POSCAR:  H  C  O
  positions in cartesian coordinates
  No initial velocities read in
 exchange correlation table for  LEXCH =        8
   RHO(1)=    0.500       N(1)  =     2000
   RHO(2)=  100.500       N(2)  =     4000
 


--------------------------------------------------------------------------------------------------------


 ion  position               nearest neighbor table
   1  0.001  0.098  0.978-   6 0.96
   2  0.000  0.100  0.021-   6 0.96
   3  0.000  0.003  0.000-   4 1.17   5 1.17
   4  0.000  0.036  0.000-   3 1.17   6 1.60
   5  0.000  0.969  0.000-   3 1.17
   6  0.000  0.082  0.000-   2 0.96   1 0.96   4 1.60
 
  LATTYP: Found a simple cubic cell.
 ALAT       =    35.0000000000
  
  Lattice vectors:
  
 A1 = (  35.0000000000,   0.0000000000,   0.0000000000)
 A2 = (   0.0000000000,  35.0000000000,   0.0000000000)
 A3 = (   0.0000000000,   0.0000000000,  35.0000000000)


Analysis of symmetry for initial positions (statically):
=====================================================================
 Subroutine PRICEL returns:
 Original cell was already a primitive cell.
 

 Routine SETGRP: Setting up the symmetry group for a 
 simple cubic supercell.


 Subroutine GETGRP returns: Found  1 space group operations
 (whereof  1 operations were pure point group operations)
 out of a pool of 48 trial point group operations.


The static configuration has the point symmetry C_1 .


Analysis of symmetry for dynamics (positions and initial velocities):
=====================================================================
 Subroutine PRICEL returns:
 Original cell was already a primitive cell.
 

 Routine SETGRP: Setting up the symmetry group for a 
 simple cubic supercell.


 Subroutine GETGRP returns: Found  1 space group operations
 (whereof  1 operations were pure point group operations)
 out of a pool of 48 trial point group operations.


The dynamic configuration has the point symmetry C_1 .


 Subroutine INISYM returns: Found  1 space group operations
 (whereof  1 operations are pure point group operations),
 and found     1 'primitive' translations


----------------------------------------------------------------------------------------

                                     Primitive cell                                     

  volume of cell :   42875.0000

  direct lattice vectors                    reciprocal lattice vectors
    35.000000000  0.000000000  0.000000000     0.028571429  0.000000000  0.000000000
     0.000000000 35.000000000  0.000000000     0.000000000  0.028571429  0.000000000
     0.000000000  0.000000000 35.000000000     0.000000000  0.000000000  0.028571429

  length of vectors
    35.000000000 35.000000000 35.000000000     0.028571429  0.028571429  0.028571429

  position of ions in fractional coordinates (direct lattice)
     0.000848682  0.097504213  0.977571084
     0.000390051  0.099558386  0.020841195
     0.000000000  0.002521600  0.000000000
     0.000000000  0.035956457  0.000000000
     0.000000000  0.969086743  0.000000000
     0.000000000  0.081670743  0.000000000

  ion indices of the primitive-cell ions
   primitive index   ion index
                 1           1
                 2           2
                 3           3
                 4           4
                 5           5
                 6           6

----------------------------------------------------------------------------------------

 
 
 KPOINTS: g                                       

Automatic generation of k-mesh.
Space group operators:
 irot       det(A)        alpha          n_x          n_y          n_z        tau_x        tau_y        tau_z
    1     1.000000     0.000000     1.000000     0.000000     0.000000     0.000000     0.000000     0.000000
 
 Subroutine IBZKPT returns following result:
 ===========================================
 
 Found      1 irreducible k-points:
 
 Following reciprocal coordinates:
            Coordinates               Weight
  0.000000  0.000000  0.000000      1.000000
 
 Following cartesian coordinates:
            Coordinates               Weight
  0.000000  0.000000  0.000000      1.000000
 


--------------------------------------------------------------------------------------------------------




 Dimension of arrays:
   k-points           NKPTS =      1   k-points in BZ     NKDIM =      1   number of bands    NBANDS=     32
   number of dos      NEDOS =    301   number of ions     NIONS =      6
   non local maximal  LDIM  =      4   non local SUM 2l+1 LMDIM =      8
   total plane-waves  NPLWV = ******
   max r-space proj   IRMAX =      1   max aug-charges    IRDMAX=  29269
   dimension x,y,z NGX =   378 NGY =  378 NGZ =  378
   dimension x,y,z NGXF=   756 NGYF=  756 NGZF=  756
   support grid    NGXF=   756 NGYF=  756 NGZF=  756
   ions per type =               2   1   3
   NGX,Y,Z   is equivalent  to a cutoff of  17.95, 17.95, 17.95 a.u.
   NGXF,Y,Z  is equivalent  to a cutoff of  35.91, 35.91, 35.91 a.u.

 SYSTEM =  C                                       
 POSCAR =   H  C  O                                

 Startparameter for this run:
   NWRITE =      2    write-flag & timer
   PREC   = acc       normal or accurate (medium, high low for compatibility)
   ISTART =      0    job   : 0-new  1-cont  2-samecut
   ICHARG =      2    charge: 1-file 2-atom 10-const
   ISPIN  =      1    spin polarized calculation?
   LNONCOLLINEAR =      F non collinear calculations
   LSORBIT =      F    spin-orbit coupling
   INIWAV =      1    electr: 0-lowe 1-rand  2-diag
   LASPH  =      T    aspherical Exc in radial PAW
   METAGGA=      F    non-selfconsistent MetaGGA calc.

 Electronic Relaxation 1
   ENCUT  = 1000.0 eV  73.50 Ry    8.57 a.u.  90.25 90.25 90.25*2*pi/ulx,y,z
   ENINI  = 1000.0     initial cutoff
   ENAUG  =  439.2 eV  augmentation charge cutoff
   NELM   =     60;   NELMIN=  2; NELMDL= -5     # of ELM steps 
   EDIFF  = 0.1E-06   stopping-criterion for ELM
   LREAL  =      F    real-space projection
   NLSPLINE    = F    spline interpolate recip. space projectors
   LCOMPAT=      F    compatible to vasp.4.4
   GGA_COMPAT  = T    GGA compatible to vasp.4.4-vasp.4.6
   LMAXPAW     = -100 max onsite density
   LMAXMIX     =    2 max onsite mixed and CHGCAR
   VOSKOWN=      0    Vosko Wilk Nusair interpolation
   ROPT   =    0.00000   0.00000   0.00000
 Ionic relaxation
   EDIFFG = 0.1E-05   stopping-criterion for IOM
   NSW    =      0    number of steps for IOM
   NBLOCK =      1;   KBLOCK =      1    inner block; outer block 
   IBRION =     -1    ionic relax: 0-MD 1-quasi-New 2-CG
   NFREE  =      0    steps in history (QN), initial steepest desc. (CG)
   ISIF   =      2    stress and relaxation
   IWAVPR =     10    prediction:  0-non 1-charg 2-wave 3-comb
   ISYM   =      2    0-nonsym 1-usesym 2-fastsym
   LCORR  =      T    Harris-Foulkes like correction to forces

   POTIM  = 0.5000    time-step for ionic-motion
   TEIN   =    0.0    initial temperature
   TEBEG  =    0.0;   TEEND  =   0.0 temperature during run
   SMASS  =  -3.00    Nose mass-parameter (am)
   estimated Nose-frequenzy (Omega)   =  0.10E-29 period in steps = 0.13E+47 mass=  -0.280E-25a.u.
   SCALEE = 1.0000    scale energy and forces
   NPACO  =    256;   APACO  = 16.0  distance and # of slots for P.C.
   PSTRESS=    0.0 pullay stress

  Mass of Ions in am
   POMASS =   1.00 12.01 16.00
  Ionic Valenz
   ZVAL   =   1.00  4.00  6.00
  Atomic Wigner-Seitz radii
   RWIGS  =  -1.00 -1.00 -1.00
  virtual crystal weights 
   VCA    =   1.00  1.00  1.00
   NELECT =      24.0000    total number of electrons
   NUPDOWN=      -1.0000    fix difference up-down

 DOS related values:
   EMIN   =  10.00;   EMAX   =-10.00  energy-range for DOS
   EFERMI =   0.00
   ISMEAR =     0;   SIGMA  =   0.01  broadening in eV -4-tet -1-fermi 0-gaus

 Electronic relaxation 2 (details)
   IALGO  =     38    algorithm
   LDIAG  =      T    sub-space diagonalisation (order eigenvalues)
   LSUBROT=      F    optimize rotation matrix (better conditioning)
   TURBO    =      0    0=normal 1=particle mesh
   IRESTART =      0    0=no restart 2=restart with 2 vectors
   NREBOOT  =      0    no. of reboots
   NMIN     =      0    reboot dimension
   EREF     =   0.00    reference energy to select bands
   IMIX   =      4    mixing-type and parameters
     AMIX     =   0.40;   BMIX     =  1.00
     AMIX_MAG =   1.60;   BMIX_MAG =  1.00
     AMIN     =   0.10
     WC   =   100.;   INIMIX=   1;  MIXPRE=   1;  MAXMIX= -45

 Intra band minimization:
   WEIMIN = 0.0000     energy-eigenvalue tresh-hold
   EBREAK =  0.78E-09  absolut break condition
   DEPER  =   0.30     relativ break condition  

   TIME   =   0.40     timestep for ELM

  volume/ion in A,a.u.               =    7145.83     48222.46
  Fermi-wavevector in a.u.,A,eV,Ry     =   0.134920  0.254962  0.247673  0.018203
  Thomas-Fermi vector in A             =   0.783236
 
 Write flags
   LWAVE        =      T    write WAVECAR
   LDOWNSAMPLE  =      F    k-point downsampling of WAVECAR
   LCHARG       =      T    write CHGCAR
   LVTOT        =      F    write LOCPOT, total local potential
   LVHAR        =      F    write LOCPOT, Hartree potential only
   LELF         =      F    write electronic localiz. function (ELF)
   LORBIT       =      0    0 simple, 1 ext, 2 COOP (PROOUT), +10 PAW based schemes


 Dipole corrections
   LMONO  =      F    monopole corrections only (constant potential shift)
   LDIPOL =      F    correct potential (dipole corrections)
   IDIPOL =      4    1-x, 2-y, 3-z, 4-all directions 
   EPSILON=  1.0000000 bulk dielectric constant

 Exchange correlation treatment:
   GGA     =    --    GGA type
   LEXCH   =     8    internal setting for exchange type
   VOSKOWN=      0    Vosko Wilk Nusair interpolation
   LHFCALC =     F    Hartree Fock is set to
   LHFONE  =     F    Hartree Fock one center treatment
   AEXX    =    0.0000 exact exchange contribution

 Linear response parameters
   LEPSILON=     F    determine dielectric tensor
   LRPA    =     F    only Hartree local field effects (RPA)
   LNABLA  =     F    use nabla operator in PAW spheres
   LVEL    =     F    velocity operator in full k-point grid
   LINTERFAST=   F  fast interpolation
   KINTER  =     0    interpolate to denser k-point grid
   CSHIFT  =0.1000    complex shift for real part using Kramers Kronig
   OMEGAMAX=  -1.0    maximum frequency
   DEG_THRESHOLD= 0.2000000E-02 threshold for treating states as degnerate
   RTIME   =   -0.100 relaxation time in fs
  (WPLASMAI=    0.000 imaginary part of plasma frequency in eV, 0.658/RTIME)
   DFIELD  = 0.0000000 0.0000000 0.0000000 field for delta impulse in time
 
 Orbital magnetization related:
   ORBITALMAG=     F  switch on orbital magnetization
   LCHIMAG   =     F  perturbation theory with respect to B field
   DQ        =  0.001000  dq finite difference perturbation B field
   LLRAUG    =     F  two centre corrections for induced B field



--------------------------------------------------------------------------------------------------------


 Static calculation
 charge density and potential will be updated during run
 non-spin polarized calculation
 Variant of blocked Davidson
 Davidson routine will perform the subspace rotation
 perform sub-space diagonalisation
    after iterative eigenvector-optimisation
 modified Broyden-mixing scheme, WC =      100.0
 initial mixing is a Kerker type mixing with AMIX =  0.4000 and BMIX =      1.0000
 Hartree-type preconditioning will be used
 using additional bands            20
 reciprocal scheme for non local part
 calculate Harris-corrections to forces 
   (improved forces if not selfconsistent)
 use gradient corrections 
 use of overlap-Matrix (Vanderbilt PP)
 Gauss-broadening in eV      SIGMA  =   0.01


--------------------------------------------------------------------------------------------------------


  energy-cutoff  :     1000.00
  volume of cell :    42875.00
      direct lattice vectors                 reciprocal lattice vectors
    35.000000000  0.000000000  0.000000000     0.028571429  0.000000000  0.000000000
     0.000000000 35.000000000  0.000000000     0.000000000  0.028571429  0.000000000
     0.000000000  0.000000000 35.000000000     0.000000000  0.000000000  0.028571429

  length of vectors
    35.000000000 35.000000000 35.000000000     0.028571429  0.028571429  0.028571429


 
 k-points in units of 2pi/SCALE and weight: g                                       
   0.00000000  0.00000000  0.00000000       1.000
 
 k-points in reciprocal lattice and weights: g                                       
   0.00000000  0.00000000  0.00000000       1.000
 
 position of ions in fractional coordinates (direct lattice) 
   0.00084868  0.09750421  0.97757108
   0.00039005  0.09955839  0.02084119
   0.00000000  0.00252160  0.00000000
   0.00000000  0.03595646  0.00000000
   0.00000000  0.96908674  0.00000000
   0.00000000  0.08167074  0.00000000
 
 position of ions in cartesian coordinates  (Angst):
   0.02970387  3.41264746 34.21498793
   0.01365177  3.48454352  0.72944182
   0.00000000  0.08825600  0.00000000
   0.00000000  1.25847600  0.00000000
   0.00000000 33.91803600  0.00000000
   0.00000000  2.85847600  0.00000000
 


--------------------------------------------------------------------------------------------------------


 use serial FFT for orbitals x direction half grid
 k-point   1 :   0.0000 0.0000 0.0000  plane waves: 1539209

 maximum and minimum number of plane-waves per node :   1539209  1539209

 maximum number of plane-waves:   1539209
 maximum index in each direction: 
   IXMAX=   90   IYMAX=   90   IZMAX=   90
   IXMIN=    0   IYMIN=  -90   IZMIN=  -90


 serial   3D FFT for wavefunctions
 parallel 3D FFT for charge:
    minimum data exchange during FFTs selected (reduces bandwidth)


 total amount of memory used by VASP MPI-rank0  4216433. kBytes
=======================================================================

   base      :      30000. kBytes
   nonl-proj :     443298. kBytes
   fftplans  :     676185. kBytes
   grid      :    3042313. kBytes
   one-center:          9. kBytes
   wavefun   :      24628. kBytes
 
     INWAV:  cpu time    0.0001: real time    0.0000
 Broyden mixing: mesh for mixing (old mesh)
   NGX =181   NGY =181   NGZ =181
  (NGX  =756   NGY  =756   NGZ  =756)
  gives a total of ****** points

 initial charge density was supplied:
 charge density of overlapping atoms calculated
 number of electron      24.0000000 magnetization 
 keeping initial charge density in first step


--------------------------------------------------------------------------------------------------------


 Maximum index for augmentation-charges          1120 (set IRDMAX)


--------------------------------------------------------------------------------------------------------


 First call to EWALD:  gamma=   0.051
 Maximum number of real-space cells 3x 3x 3
 Maximum number of reciprocal cells 3x 3x 3

    FEWALD:  cpu time    0.0042: real time    0.0042


--------------------------------------- Iteration      1(   1)  ---------------------------------------


    POTLOK:  cpu time   15.2086: real time   15.2340
    SETDIJ:  cpu time    0.0493: real time    0.0500
     EDDAV:  cpu time   30.6291: real time   30.6926
       DOS:  cpu time    0.0004: real time    0.0004
    --------------------------------------------
      LOOP:  cpu time   45.8875: real time   45.9769

 eigenvalue-minimisations  :   128
 total energy-change (2. order) : 0.1606642E+03  (-0.4988463E+03)
 number of electron      24.0000000 magnetization 
 augmentation part       24.0000000 magnetization 

 Free energy of the ion-electron system (eV)
  ---------------------------------------------------
  alpha Z        PSCENC =         0.03994862
  Ewald energy   TEWEN  =      1392.20711239
  -Hartree energ DENC   =     -2542.58676902
  -exchange      EXHF   =         0.00000000
  -V(xc)+E(xc)   XCENC  =       101.07313044
  PAW double counting   =      1147.08281512    -1160.42820606
  entropy T*S    EENTRO =        -0.00000000
  eigenvalues    EBANDS =      -245.99149154
  atomic energy  EATOM  =      1469.26766065
  Solvation  Ediel_sol  =         0.00000000
  ---------------------------------------------------
  free energy    TOTEN  =       160.66420059 eV

  energy without entropy =      160.66420059  energy(sigma->0) =      160.66420059


--------------------------------------------------------------------------------------------------------




--------------------------------------- Iteration      1(   2)  ---------------------------------------


     EDDAV:  cpu time   30.5664: real time   30.6196
       DOS:  cpu time    0.0002: real time    0.0002
    --------------------------------------------
      LOOP:  cpu time   30.5667: real time   30.6199

 eigenvalue-minimisations  :   128
 total energy-change (2. order) :-0.1789508E+03  (-0.1789508E+03)
 number of electron      24.0000000 magnetization 
 augmentation part       24.0000000 magnetization 

 Free energy of the ion-electron system (eV)
  ---------------------------------------------------
  alpha Z        PSCENC =         0.03994862
  Ewald energy   TEWEN  =      1392.20711239
  -Hartree energ DENC   =     -2542.58676902
  -exchange      EXHF   =         0.00000000
  -V(xc)+E(xc)   XCENC  =       101.07313044
  PAW double counting   =      1147.08281512    -1160.42820606
  entropy T*S    EENTRO =        -0.00000000
  eigenvalues    EBANDS =      -424.94230635
  atomic energy  EATOM  =      1469.26766065
  Solvation  Ediel_sol  =         0.00000000
  ---------------------------------------------------
  free energy    TOTEN  =       -18.28661421 eV

  energy without entropy =      -18.28661421  energy(sigma->0) =      -18.28661421


--------------------------------------------------------------------------------------------------------




--------------------------------------- Iteration      1(   3)  ---------------------------------------


     EDDAV:  cpu time   18.4155: real time   18.4460
       DOS:  cpu time    0.0002: real time    0.0002
    --------------------------------------------
      LOOP:  cpu time   18.4157: real time   18.4462

 eigenvalue-minimisations  :    64
 total energy-change (2. order) :-0.1752500E+02  (-0.1752500E+02)
 number of electron      24.0000000 magnetization 
 augmentation part       24.0000000 magnetization 

 Free energy of the ion-electron system (eV)
  ---------------------------------------------------
  alpha Z        PSCENC =         0.03994862
  Ewald energy   TEWEN  =      1392.20711239
  -Hartree energ DENC   =     -2542.58676902
  -exchange      EXHF   =         0.00000000
  -V(xc)+E(xc)   XCENC  =       101.07313044
  PAW double counting   =      1147.08281512    -1160.42820606
  entropy T*S    EENTRO =        -0.00000000
  eigenvalues    EBANDS =      -442.46730538
  atomic energy  EATOM  =      1469.26766065
  Solvation  Ediel_sol  =         0.00000000
  ---------------------------------------------------
  free energy    TOTEN  =       -35.81161324 eV

  energy without entropy =      -35.81161324  energy(sigma->0) =      -35.81161324


--------------------------------------------------------------------------------------------------------




--------------------------------------- Iteration      1(   4)  ---------------------------------------


     EDDAV:  cpu time   30.6851: real time   30.7385
       DOS:  cpu time    0.0002: real time    0.0002
    --------------------------------------------
      LOOP:  cpu time   30.6853: real time   30.7387

 eigenvalue-minimisations  :   128
 total energy-change (2. order) :-0.2341075E+00  (-0.2341076E+00)
 number of electron      24.0000000 magnetization 
 augmentation part       24.0000000 magnetization 

 Free energy of the ion-electron system (eV)
  ---------------------------------------------------
  alpha Z        PSCENC =         0.03994862
  Ewald energy   TEWEN  =      1392.20711239
  -Hartree energ DENC   =     -2542.58676902
  -exchange      EXHF   =         0.00000000
  -V(xc)+E(xc)   XCENC  =       101.07313044
  PAW double counting   =      1147.08281512    -1160.42820606
  entropy T*S    EENTRO =        -0.00000000
  eigenvalues    EBANDS =      -442.70141292
  atomic energy  EATOM  =      1469.26766065
  Solvation  Ediel_sol  =         0.00000000
  ---------------------------------------------------
  free energy    TOTEN  =       -36.04572078 eV

  energy without entropy =      -36.04572078  energy(sigma->0) =      -36.04572078


--------------------------------------------------------------------------------------------------------




--------------------------------------- Iteration      1(   5)  ---------------------------------------


     EDDAV:  cpu time   18.4529: real time   18.4838
       DOS:  cpu time    0.0003: real time    0.0002
    CHARGE:  cpu time    6.4761: real time    6.4849
    MIXING:  cpu time    0.3051: real time    0.3056
    --------------------------------------------
      LOOP:  cpu time   25.2343: real time   25.2746

 eigenvalue-minimisations  :    64
 total energy-change (2. order) :-0.1502388E-03  (-0.1502577E-03)
 number of electron      23.9999998 magnetization 
 augmentation part        4.6567099 magnetization 

 Broyden mixing:
  rms(total) = 0.66499E+01    rms(broyden)= 0.66499E+01
  rms(prec ) = 0.66567E+01
  weight for this iteration     100.00

 Free energy of the ion-electron system (eV)
  ---------------------------------------------------
  alpha Z        PSCENC =         0.03994862
  Ewald energy   TEWEN  =      1392.20711239
  -Hartree energ DENC   =     -2542.58676902
  -exchange      EXHF   =         0.00000000
  -V(xc)+E(xc)   XCENC  =       101.07313044
  PAW double counting   =      1147.08281512    -1160.42820606
  entropy T*S    EENTRO =        -0.00000000
  eigenvalues    EBANDS =      -442.70156316
  atomic energy  EATOM  =      1469.26766065
  Solvation  Ediel_sol  =         0.00000000
  ---------------------------------------------------
  free energy    TOTEN  =       -36.04587102 eV

  energy without entropy =      -36.04587102  energy(sigma->0) =      -36.04587102


--------------------------------------------------------------------------------------------------------




--------------------------------------- Iteration      1(   6)  ---------------------------------------


    POTLOK:  cpu time   14.9002: real time   14.9245
    SETDIJ:  cpu time    0.0486: real time    0.0487
     EDDAV:  cpu time   24.2667: real time   24.3076
       DOS:  cpu time    0.0104: real time    0.0104
    CHARGE:  cpu time    6.3301: real time    6.3384
    MIXING:  cpu time    0.3225: real time    0.3257
    --------------------------------------------
      LOOP:  cpu time   45.8786: real time   45.9554

 eigenvalue-minimisations  :    96
 total energy-change (2. order) : 0.3851812E+01  (-0.2708171E+01)
 number of electron      23.9999998 magnetization 
 augmentation part        3.9772298 magnetization 

 Broyden mixing:
  rms(total) = 0.60417E+01    rms(broyden)= 0.60417E+01
  rms(prec ) = 0.60423E+01
  weight for this iteration     100.00

 eigenvalues of (default mixing * dielectric matrix)
  average eigenvalue GAMMA=   0.9029
  0.9029

 Free energy of the ion-electron system (eV)
  ---------------------------------------------------
  alpha Z        PSCENC =         0.03994862
  Ewald energy   TEWEN  =      1392.20711239
  -Hartree energ DENC   =     -2600.00980285
  -exchange      EXHF   =         0.00000000
  -V(xc)+E(xc)   XCENC  =       104.00919983
  PAW double counting   =      2483.50083128    -2499.41691437
  entropy T*S    EENTRO =        -0.00000000
  eigenvalues    EBANDS =      -381.79209417
  atomic energy  EATOM  =      1469.26766065
  Solvation  Ediel_sol  =         0.00000000
  ---------------------------------------------------
  free energy    TOTEN  =       -32.19405863 eV

  energy without entropy =      -32.19405863  energy(sigma->0) =      -32.19405863


--------------------------------------------------------------------------------------------------------




--------------------------------------- Iteration      1(   7)  ---------------------------------------


    POTLOK:  cpu time   14.9269: real time   14.9512
    SETDIJ:  cpu time    0.0488: real time    0.0488
     EDDAV:  cpu time   24.2909: real time   24.3317
       DOS:  cpu time    0.0022: real time    0.0022
    CHARGE:  cpu time    6.3376: real time    6.3459
    MIXING:  cpu time    0.3495: real time    0.3508
    --------------------------------------------
      LOOP:  cpu time   45.9558: real time   46.0307

 eigenvalue-minimisations  :    96
 total energy-change (2. order) : 0.2846451E+00  (-0.1240514E+00)
 number of electron      23.9999998 magnetization 
 augmentation part        4.0366534 magnetization 

 Broyden mixing:
  rms(total) = 0.35328E+01    rms(broyden)= 0.35328E+01
  rms(prec ) = 0.35331E+01
  weight for this iteration     100.00

 eigenvalues of (default mixing * dielectric matrix)
  average eigenvalue GAMMA=   1.6897
  0.8456  2.5338

 Free energy of the ion-electron system (eV)
  ---------------------------------------------------
  alpha Z        PSCENC =         0.03994862
  Ewald energy   TEWEN  =      1392.20711239
  -Hartree energ DENC   =     -2606.14842813
  -exchange      EXHF   =         0.00000000
  -V(xc)+E(xc)   XCENC  =       104.26719980
  PAW double counting   =      3844.40654388    -3859.76789527
  entropy T*S    EENTRO =        -0.00000000
  eigenvalues    EBANDS =      -376.18155550
  atomic energy  EATOM  =      1469.26766065
  Solvation  Ediel_sol  =         0.00000000
  ---------------------------------------------------
  free energy    TOTEN  =       -31.90941357 eV

  energy without entropy =      -31.90941357  energy(sigma->0) =      -31.90941357


--------------------------------------------------------------------------------------------------------




--------------------------------------- Iteration      1(   8)  ---------------------------------------


    POTLOK:  cpu time   14.9454: real time   14.9698
    SETDIJ:  cpu time    0.0486: real time    0.0486
     EDDAV:  cpu time   24.2734: real time   24.3138
       DOS:  cpu time    0.0022: real time    0.0022
    CHARGE:  cpu time    6.2986: real time    6.3072
    MIXING:  cpu time    0.3324: real time    0.3330
    --------------------------------------------
      LOOP:  cpu time   45.9007: real time   45.9747

 eigenvalue-minimisations  :    96
 total energy-change (2. order) : 0.1373191E+00  (-0.6498387E-01)
 number of electron      23.9999998 magnetization 
 augmentation part        3.9915010 magnetization 

 Broyden mixing:
  rms(total) = 0.32512E+00    rms(broyden)= 0.32512E+00
  rms(prec ) = 0.32617E+00
  weight for this iteration     100.00

 eigenvalues of (default mixing * dielectric matrix)
  average eigenvalue GAMMA=   1.3673
  2.5205  0.7907  0.7907

 Free energy of the ion-electron system (eV)
  ---------------------------------------------------
  alpha Z        PSCENC =         0.03994862
  Ewald energy   TEWEN  =      1392.20711239
  -Hartree energ DENC   =     -2625.38441136
  -exchange      EXHF   =         0.00000000
  -V(xc)+E(xc)   XCENC  =       105.14949863
  PAW double counting   =      7121.97579262    -7136.98392212
  entropy T*S    EENTRO =        -0.00000000
  eigenvalues    EBANDS =      -358.04377388
  atomic energy  EATOM  =      1469.26766065
  Solvation  Ediel_sol  =         0.00000000
  ---------------------------------------------------
  free energy    TOTEN  =       -31.77209445 eV

  energy without entropy =      -31.77209445  energy(sigma->0) =      -31.77209445


--------------------------------------------------------------------------------------------------------




--------------------------------------- Iteration      1(   9)  ---------------------------------------


    POTLOK:  cpu time   14.8935: real time   14.9181
    SETDIJ:  cpu time    0.0487: real time    0.0487
     EDDAV:  cpu time   30.4481: real time   30.4982
       DOS:  cpu time    0.0027: real time    0.0027
    CHARGE:  cpu time    6.3396: real time    6.3480
    MIXING:  cpu time    0.3474: real time    0.3480
    --------------------------------------------
      LOOP:  cpu time   52.0799: real time   52.1637

 eigenvalue-minimisations  :   128
 total energy-change (2. order) : 0.1750014E-01  (-0.1470033E-01)
 number of electron      23.9999998 magnetization 
 augmentation part        3.9992134 magnetization 

 Broyden mixing:
  rms(total) = 0.17706E+00    rms(broyden)= 0.17706E+00
  rms(prec ) = 0.17746E+00
  weight for this iteration     100.00

 eigenvalues of (default mixing * dielectric matrix)
  average eigenvalue GAMMA=   1.3175
  2.5128  1.0337  1.0337  0.6899

 Free energy of the ion-electron system (eV)
  ---------------------------------------------------
  alpha Z        PSCENC =         0.03994862
  Ewald energy   TEWEN  =      1392.20711239
  -Hartree energ DENC   =     -2624.62666872
  -exchange      EXHF   =         0.00000000
  -V(xc)+E(xc)   XCENC  =       105.10345790
  PAW double counting   =      7130.23094193    -7145.17432033
  entropy T*S    EENTRO =        -0.00000000
  eigenvalues    EBANDS =      -358.80272676
  atomic energy  EATOM  =      1469.26766065
  Solvation  Ediel_sol  =         0.00000000
  ---------------------------------------------------
  free energy    TOTEN  =       -31.75459432 eV

  energy without entropy =      -31.75459432  energy(sigma->0) =      -31.75459432


--------------------------------------------------------------------------------------------------------




--------------------------------------- Iteration      1(  10)  ---------------------------------------


    POTLOK:  cpu time   14.9397: real time   14.9641
    SETDIJ:  cpu time    0.0486: real time    0.0486
     EDDAV:  cpu time   30.4485: real time   30.4995
       DOS:  cpu time    0.0007: real time    0.0007
    CHARGE:  cpu time    6.3683: real time    6.3780
    MIXING:  cpu time    0.3708: real time    0.3715
    --------------------------------------------
      LOOP:  cpu time   52.1766: real time   52.2625

 eigenvalue-minimisations  :   128
 total energy-change (2. order) : 0.4916972E-03  (-0.1015823E-02)
 number of electron      23.9999998 magnetization 
 augmentation part        3.9996653 magnetization 

 Broyden mixing:
  rms(total) = 0.90728E-01    rms(broyden)= 0.90728E-01
  rms(prec ) = 0.91103E-01
  weight for this iteration     100.00

 eigenvalues of (default mixing * dielectric matrix)
  average eigenvalue GAMMA=   1.3482
  2.5092  1.3525  1.3525  0.8094  0.7172

 Free energy of the ion-electron system (eV)
  ---------------------------------------------------
  alpha Z        PSCENC =         0.03994862
  Ewald energy   TEWEN  =      1392.20711239
  -Hartree energ DENC   =     -2624.81862083
  -exchange      EXHF   =         0.00000000
  -V(xc)+E(xc)   XCENC  =       105.07644934
  PAW double counting   =      7133.65892909    -7148.54697964
  entropy T*S    EENTRO =        -0.00000000
  eigenvalues    EBANDS =      -358.63860222
  atomic energy  EATOM  =      1469.26766065
  Solvation  Ediel_sol  =         0.00000000
  ---------------------------------------------------
  free energy    TOTEN  =       -31.75410262 eV

  energy without entropy =      -31.75410262  energy(sigma->0) =      -31.75410262


--------------------------------------------------------------------------------------------------------




--------------------------------------- Iteration      1(  11)  ---------------------------------------


    POTLOK:  cpu time   14.8892: real time   14.9140
    SETDIJ:  cpu time    0.0486: real time    0.0487
     EDDAV:  cpu time   30.3914: real time   30.4481
       DOS:  cpu time    0.0002: real time    0.0002
    CHARGE:  cpu time    6.3803: real time    6.3886
    MIXING:  cpu time    0.3796: real time    0.3803
    --------------------------------------------
      LOOP:  cpu time   52.0895: real time   52.1799

 eigenvalue-minimisations  :   128
 total energy-change (2. order) :-0.1460683E-02  (-0.1079818E-03)
 number of electron      23.9999998 magnetization 
 augmentation part        4.0005498 magnetization 

 Broyden mixing:
  rms(total) = 0.46415E-01    rms(broyden)= 0.46415E-01
  rms(prec ) = 0.46833E-01
  weight for this iteration     100.00

 eigenvalues of (default mixing * dielectric matrix)
  average eigenvalue GAMMA=   1.4209
  2.2903  2.2903  1.3391  0.7068  0.9496  0.9496

 Free energy of the ion-electron system (eV)
  ---------------------------------------------------
  alpha Z        PSCENC =         0.03994862
  Ewald energy   TEWEN  =      1392.20711239
  -Hartree energ DENC   =     -2625.48158021
  -exchange      EXHF   =         0.00000000
  -V(xc)+E(xc)   XCENC  =       105.07380305
  PAW double counting   =      7126.66915717    -7141.52235841
  entropy T*S    EENTRO =        -0.00000000
  eigenvalues    EBANDS =      -358.00930655
  atomic energy  EATOM  =      1469.26766065
  Solvation  Ediel_sol  =         0.00000000
  ---------------------------------------------------
  free energy    TOTEN  =       -31.75556330 eV

  energy without entropy =      -31.75556330  energy(sigma->0) =      -31.75556330


--------------------------------------------------------------------------------------------------------




--------------------------------------- Iteration      1(  12)  ---------------------------------------


    POTLOK:  cpu time   14.8935: real time   14.9188
    SETDIJ:  cpu time    0.0489: real time    0.0489
     EDDAV:  cpu time   24.3166: real time   24.3641
       DOS:  cpu time    0.0057: real time    0.0057
    CHARGE:  cpu time    6.3424: real time    6.3508
    MIXING:  cpu time    0.4202: real time    0.4209
    --------------------------------------------
      LOOP:  cpu time   46.0272: real time   46.1093

 eigenvalue-minimisations  :    96
 total energy-change (2. order) :-0.2058862E-02  (-0.5758463E-04)
 number of electron      23.9999998 magnetization 
 augmentation part        3.9993462 magnetization 

 Broyden mixing:
  rms(total) = 0.11200E-01    rms(broyden)= 0.11200E-01
  rms(prec ) = 0.12076E-01
  weight for this iteration     100.00

 eigenvalues of (default mixing * dielectric matrix)
  average eigenvalue GAMMA=   1.3422
  2.3843  2.3843  1.2990  0.9631  0.9631  0.7077  0.6939

 Free energy of the ion-electron system (eV)
  ---------------------------------------------------
  alpha Z        PSCENC =         0.03994862
  Ewald energy   TEWEN  =      1392.20711239
  -Hartree energ DENC   =     -2626.38537266
  -exchange      EXHF   =         0.00000000
  -V(xc)+E(xc)   XCENC  =       105.08463308
  PAW double counting   =      7107.28065335    -7122.12313477
  entropy T*S    EENTRO =        -0.00000000
  eigenvalues    EBANDS =      -357.12912283
  atomic energy  EATOM  =      1469.26766065
  Solvation  Ediel_sol  =         0.00000000
  ---------------------------------------------------
  free energy    TOTEN  =       -31.75762216 eV

  energy without entropy =      -31.75762216  energy(sigma->0) =      -31.75762216


--------------------------------------------------------------------------------------------------------




--------------------------------------- Iteration      1(  13)  ---------------------------------------


    POTLOK:  cpu time   15.0202: real time   15.0469
    SETDIJ:  cpu time    0.0486: real time    0.0486
     EDDAV:  cpu time   30.3705: real time   30.4241
       DOS:  cpu time    0.0040: real time    0.0040
    CHARGE:  cpu time    6.2771: real time    6.2852
    MIXING:  cpu time    0.4276: real time    0.4283
    --------------------------------------------
      LOOP:  cpu time   52.1480: real time   52.2371

 eigenvalue-minimisations  :   128
 total energy-change (2. order) :-0.1063090E-02  (-0.1071196E-04)
 number of electron      23.9999998 magnetization 
 augmentation part        3.9991532 magnetization 

 Broyden mixing:
  rms(total) = 0.92506E-02    rms(broyden)= 0.92506E-02
  rms(prec ) = 0.10031E-01
  weight for this iteration     100.00

 eigenvalues of (default mixing * dielectric matrix)
  average eigenvalue GAMMA=   1.4912
  2.2292  2.2292  1.9441  1.9441  0.7136  1.0297  0.9200  0.9200

 Free energy of the ion-electron system (eV)
  ---------------------------------------------------
  alpha Z        PSCENC =         0.03994862
  Ewald energy   TEWEN  =      1392.20711239
  -Hartree energ DENC   =     -2626.76241529
  -exchange      EXHF   =         0.00000000
  -V(xc)+E(xc)   XCENC  =       105.08934772
  PAW double counting   =      7108.45544780    -7123.29436733
  entropy T*S    EENTRO =        -0.00000000
  eigenvalues    EBANDS =      -356.76141981
  atomic energy  EATOM  =      1469.26766065
  Solvation  Ediel_sol  =         0.00000000
  ---------------------------------------------------
  free energy    TOTEN  =       -31.75868525 eV

  energy without entropy =      -31.75868525  energy(sigma->0) =      -31.75868525


--------------------------------------------------------------------------------------------------------




--------------------------------------- Iteration      1(  14)  ---------------------------------------


    POTLOK:  cpu time   14.9089: real time   14.9349
    SETDIJ:  cpu time    0.0486: real time    0.0486
     EDDAV:  cpu time   24.2948: real time   24.3354
       DOS:  cpu time    0.0003: real time    0.0003
    CHARGE:  cpu time    6.3408: real time    6.3492
    MIXING:  cpu time    0.4431: real time    0.4440
    --------------------------------------------
      LOOP:  cpu time   46.0364: real time   46.1122

 eigenvalue-minimisations  :    96
 total energy-change (2. order) :-0.2627413E-02  (-0.2820159E-04)
 number of electron      23.9999998 magnetization 
 augmentation part        3.9987636 magnetization 

 Broyden mixing:
  rms(total) = 0.51599E-02    rms(broyden)= 0.51599E-02
  rms(prec ) = 0.58122E-02
  weight for this iteration     100.00

 eigenvalues of (default mixing * dielectric matrix)
  average eigenvalue GAMMA=   1.6739
  4.0482  2.7413  2.2968  1.5969  0.9967  0.9261  0.9261  0.7124  0.8206

 Free energy of the ion-electron system (eV)
  ---------------------------------------------------
  alpha Z        PSCENC =         0.03994862
  Ewald energy   TEWEN  =      1392.20711239
  -Hartree energ DENC   =     -2627.42459982
  -exchange      EXHF   =         0.00000000
  -V(xc)+E(xc)   XCENC  =       105.09530254
  PAW double counting   =      7102.09530876    -7116.93371287
  entropy T*S    EENTRO =        -0.00000000
  eigenvalues    EBANDS =      -356.10833292
  atomic energy  EATOM  =      1469.26766065
  Solvation  Ediel_sol  =         0.00000000
  ---------------------------------------------------
  free energy    TOTEN  =       -31.76131267 eV

  energy without entropy =      -31.76131267  energy(sigma->0) =      -31.76131267


--------------------------------------------------------------------------------------------------------




--------------------------------------- Iteration      1(  15)  ---------------------------------------


    POTLOK:  cpu time   14.9212: real time   14.9456
    SETDIJ:  cpu time    0.0486: real time    0.0486
     EDDAV:  cpu time   24.3459: real time   24.3868
       DOS:  cpu time    0.0025: real time    0.0025
    CHARGE:  cpu time    6.3502: real time    6.3588
    MIXING:  cpu time    0.4700: real time    0.4709
    --------------------------------------------
      LOOP:  cpu time   46.1384: real time   46.2134

 eigenvalue-minimisations  :    96
 total energy-change (2. order) :-0.2607899E-02  (-0.4591267E-04)
 number of electron      23.9999998 magnetization 
 augmentation part        3.9983962 magnetization 

 Broyden mixing:
  rms(total) = 0.16297E-02    rms(broyden)= 0.16297E-02
  rms(prec ) = 0.21176E-02
  weight for this iteration     100.00

 eigenvalues of (default mixing * dielectric matrix)
  average eigenvalue GAMMA=   1.6803
  4.1533  2.8854  2.3253  1.7329  1.1943  0.7120  0.9859  0.9859  0.9137  0.9137

 Free energy of the ion-electron system (eV)
  ---------------------------------------------------
  alpha Z        PSCENC =         0.03994862
  Ewald energy   TEWEN  =      1392.20711239
  -Hartree energ DENC   =     -2628.18980778
  -exchange      EXHF   =         0.00000000
  -V(xc)+E(xc)   XCENC  =       105.10240840
  PAW double counting   =      7100.23175335    -7115.06741271
  entropy T*S    EENTRO =        -0.00000000
  eigenvalues    EBANDS =      -355.35558348
  atomic energy  EATOM  =      1469.26766065
  Solvation  Ediel_sol  =         0.00000000
  ---------------------------------------------------
  free energy    TOTEN  =       -31.76392057 eV

  energy without entropy =      -31.76392057  energy(sigma->0) =      -31.76392057


--------------------------------------------------------------------------------------------------------




--------------------------------------- Iteration      1(  16)  ---------------------------------------


    POTLOK:  cpu time   14.9088: real time   14.9334
    SETDIJ:  cpu time    0.0488: real time    0.0488
     EDDAV:  cpu time   30.4823: real time   30.5345
       DOS:  cpu time    0.0010: real time    0.0010
    CHARGE:  cpu time    6.3700: real time    6.3855
    MIXING:  cpu time    0.5042: real time    0.5051
    --------------------------------------------
      LOOP:  cpu time   52.3151: real time   52.4083

 eigenvalue-minimisations  :   128
 total energy-change (2. order) :-0.1071939E-02  (-0.5000661E-05)
 number of electron      23.9999998 magnetization 
 augmentation part        3.9982805 magnetization 

 Broyden mixing:
  rms(total) = 0.15683E-02    rms(broyden)= 0.15683E-02
  rms(prec ) = 0.18684E-02
  weight for this iteration     100.00

 eigenvalues of (default mixing * dielectric matrix)
  average eigenvalue GAMMA=   1.6835
  4.4373  3.2660  2.3518  1.9760  1.3124  0.7138  0.9592  0.9420  0.8605  0.8499
  0.8499

 Free energy of the ion-electron system (eV)
  ---------------------------------------------------
  alpha Z        PSCENC =         0.03994862
  Ewald energy   TEWEN  =      1392.20711239
  -Hartree energ DENC   =     -2628.33455358
  -exchange      EXHF   =         0.00000000
  -V(xc)+E(xc)   XCENC  =       105.10256717
  PAW double counting   =      7100.64978612    -7115.48463868
  entropy T*S    EENTRO =        -0.00000000
  eigenvalues    EBANDS =      -355.21287519
  atomic energy  EATOM  =      1469.26766065
  Solvation  Ediel_sol  =         0.00000000
  ---------------------------------------------------
  free energy    TOTEN  =       -31.76499251 eV

  energy without entropy =      -31.76499251  energy(sigma->0) =      -31.76499251


--------------------------------------------------------------------------------------------------------




--------------------------------------- Iteration      1(  17)  ---------------------------------------


    POTLOK:  cpu time   14.9172: real time   14.9419
    SETDIJ:  cpu time    0.0487: real time    0.0487
     EDDAV:  cpu time   30.3670: real time   30.4187
       DOS:  cpu time    0.0093: real time    0.0093
    CHARGE:  cpu time    6.3903: real time    6.3990
    MIXING:  cpu time    0.5226: real time    0.5261
    --------------------------------------------
      LOOP:  cpu time   52.2552: real time   52.3437

 eigenvalue-minimisations  :   128
 total energy-change (2. order) :-0.9886615E-03  (-0.4394930E-05)
 number of electron      23.9999998 magnetization 
 augmentation part        3.9982434 magnetization 

 Broyden mixing:
  rms(total) = 0.75367E-03    rms(broyden)= 0.75367E-03
  rms(prec ) = 0.10105E-02
  weight for this iteration     100.00

 eigenvalues of (default mixing * dielectric matrix)
  average eigenvalue GAMMA=   1.8258
  6.5963  2.7458  2.5069  1.7177  1.7177  1.1666  1.1666  0.7120  0.8908  0.8908
  0.8994  0.8994

 Free energy of the ion-electron system (eV)
  ---------------------------------------------------
  alpha Z        PSCENC =         0.03994862
  Ewald energy   TEWEN  =      1392.20711239
  -Hartree energ DENC   =     -2628.46753501
  -exchange      EXHF   =         0.00000000
  -V(xc)+E(xc)   XCENC  =       105.10206605
  PAW double counting   =      7100.37837211    -7115.21245615
  entropy T*S    EENTRO =        -0.00000000
  eigenvalues    EBANDS =      -355.08114982
  atomic energy  EATOM  =      1469.26766065
  Solvation  Ediel_sol  =         0.00000000
  ---------------------------------------------------
  free energy    TOTEN  =       -31.76598117 eV

  energy without entropy =      -31.76598117  energy(sigma->0) =      -31.76598117


--------------------------------------------------------------------------------------------------------




--------------------------------------- Iteration      1(  18)  ---------------------------------------


    POTLOK:  cpu time   14.9458: real time   14.9705
    SETDIJ:  cpu time    0.0486: real time    0.0486
     EDDAV:  cpu time   30.4845: real time   30.5354
       DOS:  cpu time    0.0078: real time    0.0078
    CHARGE:  cpu time    6.3616: real time    6.3701
    MIXING:  cpu time    0.5574: real time    0.5584
    --------------------------------------------
      LOOP:  cpu time   52.4055: real time   52.4908

 eigenvalue-minimisations  :   128
 total energy-change (2. order) :-0.6887436E-03  (-0.6623739E-05)
 number of electron      23.9999998 magnetization 
 augmentation part        3.9982090 magnetization 

 Broyden mixing:
  rms(total) = 0.52347E-03    rms(broyden)= 0.52347E-03
  rms(prec ) = 0.63452E-03
  weight for this iteration     100.00

 eigenvalues of (default mixing * dielectric matrix)
  average eigenvalue GAMMA=   1.8541
  6.8307  3.0598  2.6151  1.9402  1.9402  1.2461  1.2461  0.7121  0.9603  0.9603
  0.8456  0.8735  0.8735

 Free energy of the ion-electron system (eV)
  ---------------------------------------------------
  alpha Z        PSCENC =         0.03994862
  Ewald energy   TEWEN  =      1392.20711239
  -Hartree energ DENC   =     -2628.65335962
  -exchange      EXHF   =         0.00000000
  -V(xc)+E(xc)   XCENC  =       105.10285984
  PAW double counting   =      7099.79435951    -7114.62762387
  entropy T*S    EENTRO =        -0.00000000
  eigenvalues    EBANDS =      -354.89762743
  atomic energy  EATOM  =      1469.26766065
  Solvation  Ediel_sol  =         0.00000000
  ---------------------------------------------------
  free energy    TOTEN  =       -31.76666991 eV

  energy without entropy =      -31.76666991  energy(sigma->0) =      -31.76666991


--------------------------------------------------------------------------------------------------------




--------------------------------------- Iteration      1(  19)  ---------------------------------------


    POTLOK:  cpu time   14.8977: real time   14.9219
    SETDIJ:  cpu time    0.0486: real time    0.0486
     EDDAV:  cpu time   30.5038: real time   30.5601
       DOS:  cpu time    0.0037: real time    0.0037
    CHARGE:  cpu time    6.3757: real time    6.3852
    MIXING:  cpu time    0.6335: real time    0.6346
    --------------------------------------------
      LOOP:  cpu time   52.4630: real time   52.5542

 eigenvalue-minimisations  :   128
 total energy-change (2. order) :-0.5551908E-03  (-0.2792278E-05)
 number of electron      23.9999998 magnetization 
 augmentation part        3.9980952 magnetization 

 Broyden mixing:
  rms(total) = 0.59411E-03    rms(broyden)= 0.59411E-03
  rms(prec ) = 0.62339E-03
  weight for this iteration     100.00

 eigenvalues of (default mixing * dielectric matrix)
  average eigenvalue GAMMA=   1.9538
  8.1146  3.8982  2.4228  2.4228  1.6992  1.6697  1.1036  1.1036  0.8907  0.8907
  0.8895  0.8895  0.7115  0.6473

 Free energy of the ion-electron system (eV)
  ---------------------------------------------------
  alpha Z        PSCENC =         0.03994862
  Ewald energy   TEWEN  =      1392.20711239
  -Hartree energ DENC   =     -2628.67175303
  -exchange      EXHF   =         0.00000000
  -V(xc)+E(xc)   XCENC  =       105.10195116
  PAW double counting   =      7100.01004429    -7114.84349299
  entropy T*S    EENTRO =        -0.00000000
  eigenvalues    EBANDS =      -354.87869619
  atomic energy  EATOM  =      1469.26766065
  Solvation  Ediel_sol  =         0.00000000
  ---------------------------------------------------
  free energy    TOTEN  =       -31.76722510 eV

  energy without entropy =      -31.76722510  energy(sigma->0) =      -31.76722510


--------------------------------------------------------------------------------------------------------




--------------------------------------- Iteration      1(  20)  ---------------------------------------


    POTLOK:  cpu time   14.9241: real time   14.9492
    SETDIJ:  cpu time    0.0488: real time    0.0488
     EDDAV:  cpu time   30.4528: real time   30.5049
       DOS:  cpu time    0.0018: real time    0.0018
    CHARGE:  cpu time    6.3688: real time    6.3783
    MIXING:  cpu time    0.6248: real time    0.6261
    --------------------------------------------
      LOOP:  cpu time   52.4210: real time   52.5091

 eigenvalue-minimisations  :   128
 total energy-change (2. order) :-0.2034939E-03  (-0.7980655E-06)
 number of electron      23.9999998 magnetization 
 augmentation part        3.9981294 magnetization 

 Broyden mixing:
  rms(total) = 0.33581E-03    rms(broyden)= 0.33581E-03
  rms(prec ) = 0.35319E-03
  weight for this iteration     100.00

 eigenvalues of (default mixing * dielectric matrix)
  average eigenvalue GAMMA=   1.9963
  8.3843  4.0779  2.8054  2.3641  2.3641  1.4898  1.2651  0.7123  0.9659  0.9659
  0.8584  0.9527  0.9527  0.8927  0.8927

 Free energy of the ion-electron system (eV)
  ---------------------------------------------------
  alpha Z        PSCENC =         0.03994862
  Ewald energy   TEWEN  =      1392.20711239
  -Hartree energ DENC   =     -2628.68182928
  -exchange      EXHF   =         0.00000000
  -V(xc)+E(xc)   XCENC  =       105.10119219
  PAW double counting   =      7099.59720890    -7114.43052538
  entropy T*S    EENTRO =        -0.00000000
  eigenvalues    EBANDS =      -354.86819669
  atomic energy  EATOM  =      1469.26766065
  Solvation  Ediel_sol  =         0.00000000
  ---------------------------------------------------
  free energy    TOTEN  =       -31.76742860 eV

  energy without entropy =      -31.76742860  energy(sigma->0) =      -31.76742860


--------------------------------------------------------------------------------------------------------




--------------------------------------- Iteration      1(  21)  ---------------------------------------


    POTLOK:  cpu time   14.8605: real time   14.8852
    SETDIJ:  cpu time    0.0486: real time    0.0487
     EDDAV:  cpu time   30.4993: real time   30.5512
       DOS:  cpu time    0.0058: real time    0.0058
    CHARGE:  cpu time    6.3542: real time    6.3668
    MIXING:  cpu time    0.6539: real time    0.6550
    --------------------------------------------
      LOOP:  cpu time   52.4223: real time   52.5127

 eigenvalue-minimisations  :   128
 total energy-change (2. order) :-0.1373444E-03  (-0.3339342E-06)
 number of electron      23.9999998 magnetization 
 augmentation part        3.9981572 magnetization 

 Broyden mixing:
  rms(total) = 0.27618E-03    rms(broyden)= 0.27618E-03
  rms(prec ) = 0.28247E-03
  weight for this iteration     100.00

 eigenvalues of (default mixing * dielectric matrix)
  average eigenvalue GAMMA=   2.0528
  8.7745  4.7760  2.6774  2.6774  2.3963  1.8313  1.5551  1.1051  1.1051  0.9392
  0.9392  0.8419  0.8419  0.7122  0.8558  0.8165

 Free energy of the ion-electron system (eV)
  ---------------------------------------------------
  alpha Z        PSCENC =         0.03994862
  Ewald energy   TEWEN  =      1392.20711239
  -Hartree energ DENC   =     -2628.67808831
  -exchange      EXHF   =         0.00000000
  -V(xc)+E(xc)   XCENC  =       105.10084814
  PAW double counting   =      7099.54955609    -7114.38296725
  entropy T*S    EENTRO =        -0.00000000
  eigenvalues    EBANDS =      -354.87163626
  atomic energy  EATOM  =      1469.26766065
  Solvation  Ediel_sol  =         0.00000000
  ---------------------------------------------------
  free energy    TOTEN  =       -31.76756594 eV

  energy without entropy =      -31.76756594  energy(sigma->0) =      -31.76756594


--------------------------------------------------------------------------------------------------------




--------------------------------------- Iteration      1(  22)  ---------------------------------------


    POTLOK:  cpu time   14.8913: real time   14.9167
    SETDIJ:  cpu time    0.0488: real time    0.0488
     EDDAV:  cpu time   24.3977: real time   24.4396
       DOS:  cpu time    0.0121: real time    0.0121
    CHARGE:  cpu time    6.3783: real time    6.3876
    MIXING:  cpu time    0.7192: real time    0.7205
    --------------------------------------------
      LOOP:  cpu time   46.4473: real time   46.5254

 eigenvalue-minimisations  :    96
 total energy-change (2. order) :-0.5918827E-04  (-0.9164403E-07)
 number of electron      23.9999998 magnetization 
 augmentation part        3.9981756 magnetization 

 Broyden mixing:
  rms(total) = 0.67782E-04    rms(broyden)= 0.67782E-04
  rms(prec ) = 0.75855E-04
  weight for this iteration     100.00

 eigenvalues of (default mixing * dielectric matrix)
  average eigenvalue GAMMA=   2.0793
  8.9511  5.3583  3.3330  2.4463  2.4463  1.7721  1.7721  1.1573  1.1573  0.9525
  0.9525  0.7123  0.9011  0.9011  0.8375  0.8490  0.8490

 Free energy of the ion-electron system (eV)
  ---------------------------------------------------
  alpha Z        PSCENC =         0.03994862
  Ewald energy   TEWEN  =      1392.20711239
  -Hartree energ DENC   =     -2628.67240676
  -exchange      EXHF   =         0.00000000
  -V(xc)+E(xc)   XCENC  =       105.10056238
  PAW double counting   =      7099.50451110    -7114.33796308
  entropy T*S    EENTRO =        -0.00000000
  eigenvalues    EBANDS =      -354.87705042
  atomic energy  EATOM  =      1469.26766065
  Solvation  Ediel_sol  =         0.00000000
  ---------------------------------------------------
  free energy    TOTEN  =       -31.76762513 eV

  energy without entropy =      -31.76762513  energy(sigma->0) =      -31.76762513


--------------------------------------------------------------------------------------------------------




--------------------------------------- Iteration      1(  23)  ---------------------------------------


    POTLOK:  cpu time   14.9678: real time   14.9944
    SETDIJ:  cpu time    0.0486: real time    0.0486
     EDDAV:  cpu time   30.5282: real time   30.5803
       DOS:  cpu time    0.0014: real time    0.0014
    CHARGE:  cpu time    6.3165: real time    6.3255
    MIXING:  cpu time    0.7356: real time    0.7370
    --------------------------------------------
      LOOP:  cpu time   52.5981: real time   52.6873

 eigenvalue-minimisations  :   128
 total energy-change (2. order) :-0.2749776E-04  (-0.3342934E-07)
 number of electron      23.9999998 magnetization 
 augmentation part        3.9981785 magnetization 

 Broyden mixing:
  rms(total) = 0.60865E-04    rms(broyden)= 0.60865E-04
  rms(prec ) = 0.64506E-04
  weight for this iteration     100.00

 eigenvalues of (default mixing * dielectric matrix)
  average eigenvalue GAMMA=   2.1190
  8.9309  5.8980  3.7599  2.5543  2.2113  2.2113  1.6927  1.6927  1.1045  1.1045
  1.0320  0.7123  0.9207  0.8865  0.8904  0.8904  0.8248  0.8248

 Free energy of the ion-electron system (eV)
  ---------------------------------------------------
  alpha Z        PSCENC =         0.03994862
  Ewald energy   TEWEN  =      1392.20711239
  -Hartree energ DENC   =     -2628.67223088
  -exchange      EXHF   =         0.00000000
  -V(xc)+E(xc)   XCENC  =       105.10051919
  PAW double counting   =      7099.50648314    -7114.33992154
  entropy T*S    EENTRO =        -0.00000000
  eigenvalues    EBANDS =      -354.87722419
  atomic energy  EATOM  =      1469.26766065
  Solvation  Ediel_sol  =         0.00000000
  ---------------------------------------------------
  free energy    TOTEN  =       -31.76765263 eV

  energy without entropy =      -31.76765263  energy(sigma->0) =      -31.76765263


--------------------------------------------------------------------------------------------------------




--------------------------------------- Iteration      1(  24)  ---------------------------------------


    POTLOK:  cpu time   14.8261: real time   14.8512
    SETDIJ:  cpu time    0.0486: real time    0.0487
     EDDAV:  cpu time   30.5002: real time   30.5540
       DOS:  cpu time    0.0046: real time    0.0046
    CHARGE:  cpu time    6.3260: real time    6.3408
    MIXING:  cpu time    0.7698: real time    0.7713
    --------------------------------------------
      LOOP:  cpu time   52.4754: real time   52.5706

 eigenvalue-minimisations  :   128
 total energy-change (2. order) :-0.1871507E-04  (-0.1411569E-07)
 number of electron      23.9999998 magnetization 
 augmentation part        3.9981786 magnetization 

 Broyden mixing:
  rms(total) = 0.46754E-04    rms(broyden)= 0.46754E-04
  rms(prec ) = 0.48181E-04
  weight for this iteration     100.00

 eigenvalues of (default mixing * dielectric matrix)
  average eigenvalue GAMMA=   2.1347
  9.0712  6.2903  3.9860  2.7612  2.5148  2.2434  1.8971  1.6534  1.1293  1.1293
  0.9737  0.9737  0.9300  0.9300  0.8341  0.8341  0.7123  0.8790  0.8159

 Free energy of the ion-electron system (eV)
  ---------------------------------------------------
  alpha Z        PSCENC =         0.03994862
  Ewald energy   TEWEN  =      1392.20711239
  -Hartree energ DENC   =     -2628.67274261
  -exchange      EXHF   =         0.00000000
  -V(xc)+E(xc)   XCENC  =       105.10049845
  PAW double counting   =      7099.51067407    -7114.34407586
  entropy T*S    EENTRO =        -0.00000000
  eigenvalues    EBANDS =      -354.87674706
  atomic energy  EATOM  =      1469.26766065
  Solvation  Ediel_sol  =         0.00000000
  ---------------------------------------------------
  free energy    TOTEN  =       -31.76767134 eV

  energy without entropy =      -31.76767134  energy(sigma->0) =      -31.76767134


--------------------------------------------------------------------------------------------------------




--------------------------------------- Iteration      1(  25)  ---------------------------------------


    POTLOK:  cpu time   14.8428: real time   14.8674
    SETDIJ:  cpu time    0.0488: real time    0.0488
     EDDAV:  cpu time   30.5333: real time   30.5858
       DOS:  cpu time    0.0038: real time    0.0038
    CHARGE:  cpu time    6.3550: real time    6.3643
    MIXING:  cpu time    0.8135: real time    0.8151
    --------------------------------------------
      LOOP:  cpu time   52.5973: real time   52.6853

 eigenvalue-minimisations  :   128
 total energy-change (2. order) :-0.6769108E-05  (-0.4355989E-08)
 number of electron      23.9999998 magnetization 
 augmentation part        3.9981742 magnetization 

 Broyden mixing:
  rms(total) = 0.35770E-04    rms(broyden)= 0.35770E-04
  rms(prec ) = 0.36455E-04
  weight for this iteration     100.00

 eigenvalues of (default mixing * dielectric matrix)
  average eigenvalue GAMMA=   2.1613
  9.0314  6.5856  4.0241  2.8228  2.8228  2.5278  2.1836  1.6385  1.4558  1.0916
  1.0916  1.0941  0.7123  0.8264  0.8264  0.9206  0.9206  0.9095  0.9095  0.8310

 Free energy of the ion-electron system (eV)
  ---------------------------------------------------
  alpha Z        PSCENC =         0.03994862
  Ewald energy   TEWEN  =      1392.20711239
  -Hartree energ DENC   =     -2628.67412580
  -exchange      EXHF   =         0.00000000
  -V(xc)+E(xc)   XCENC  =       105.10052582
  PAW double counting   =      7099.53371112    -7114.36711014
  entropy T*S    EENTRO =        -0.00000000
  eigenvalues    EBANDS =      -354.87540078
  atomic energy  EATOM  =      1469.26766065
  Solvation  Ediel_sol  =         0.00000000
  ---------------------------------------------------
  free energy    TOTEN  =       -31.76767811 eV

  energy without entropy =      -31.76767811  energy(sigma->0) =      -31.76767811


--------------------------------------------------------------------------------------------------------




--------------------------------------- Iteration      1(  26)  ---------------------------------------


    POTLOK:  cpu time   14.9196: real time   14.9448
    SETDIJ:  cpu time    0.0488: real time    0.0488
     EDDAV:  cpu time   30.5150: real time   30.5667
       DOS:  cpu time    0.0017: real time    0.0017
    CHARGE:  cpu time    6.3471: real time    6.3562
    MIXING:  cpu time    0.8643: real time    0.8659
    --------------------------------------------
      LOOP:  cpu time   52.6966: real time   52.7840

 eigenvalue-minimisations  :   128
 total energy-change (2. order) :-0.4517053E-05  (-0.3567864E-08)
 number of electron      23.9999998 magnetization 
 augmentation part        3.9981703 magnetization 

 Broyden mixing:
  rms(total) = 0.19119E-04    rms(broyden)= 0.19119E-04
  rms(prec ) = 0.19504E-04
  weight for this iteration     100.00

 eigenvalues of (default mixing * dielectric matrix)
  average eigenvalue GAMMA=   2.2100
  9.4351  6.8114  4.9315  3.3754  2.6106  2.4750  2.0691  2.0691  1.5620  1.0958
  1.0958  1.1238  0.7123  0.9453  0.9453  0.8322  0.8322  0.8862  0.8862  0.8578
  0.8578

 Free energy of the ion-electron system (eV)
  ---------------------------------------------------
  alpha Z        PSCENC =         0.03994862
  Ewald energy   TEWEN  =      1392.20711239
  -Hartree energ DENC   =     -2628.67522148
  -exchange      EXHF   =         0.00000000
  -V(xc)+E(xc)   XCENC  =       105.10055207
  PAW double counting   =      7099.53025249    -7114.36366064
  entropy T*S    EENTRO =        -0.00000000
  eigenvalues    EBANDS =      -354.87432673
  atomic energy  EATOM  =      1469.26766065
  Solvation  Ediel_sol  =         0.00000000
  ---------------------------------------------------
  free energy    TOTEN  =       -31.76768263 eV

  energy without entropy =      -31.76768263  energy(sigma->0) =      -31.76768263


--------------------------------------------------------------------------------------------------------




--------------------------------------- Iteration      1(  27)  ---------------------------------------


    POTLOK:  cpu time   14.9067: real time   14.9317
    SETDIJ:  cpu time    0.0486: real time    0.0486
     EDDAV:  cpu time   18.3105: real time   18.3414
       DOS:  cpu time    0.0027: real time    0.0027
    CHARGE:  cpu time    6.3207: real time    6.3303
    MIXING:  cpu time    0.9020: real time    0.9036
    --------------------------------------------
      LOOP:  cpu time   40.4912: real time   40.5583

 eigenvalue-minimisations  :    64
 total energy-change (2. order) :-0.1471835E-05  (-0.3451312E-08)
 number of electron      23.9999998 magnetization 
 augmentation part        3.9981711 magnetization 

 Broyden mixing:
  rms(total) = 0.11209E-04    rms(broyden)= 0.11209E-04
  rms(prec ) = 0.11452E-04
  weight for this iteration     100.00

 eigenvalues of (default mixing * dielectric matrix)
  average eigenvalue GAMMA=   2.2038
  9.4558  7.1228  5.0797  3.4585  2.7041  2.3970  2.1265  2.1265  1.6474  1.0779
  1.0779  1.1303  1.0797  1.0797  0.7123  0.9604  0.9604  0.8305  0.9050  0.9050
  0.8226  0.8226

 Free energy of the ion-electron system (eV)
  ---------------------------------------------------
  alpha Z        PSCENC =         0.03994862
  Ewald energy   TEWEN  =      1392.20711239
  -Hartree energ DENC   =     -2628.67569015
  -exchange      EXHF   =         0.00000000
  -V(xc)+E(xc)   XCENC  =       105.10055261
  PAW double counting   =      7099.53239556    -7114.36580216
  entropy T*S    EENTRO =        -0.00000000
  eigenvalues    EBANDS =      -354.87386162
  atomic energy  EATOM  =      1469.26766065
  Solvation  Ediel_sol  =         0.00000000
  ---------------------------------------------------
  free energy    TOTEN  =       -31.76768410 eV

  energy without entropy =      -31.76768410  energy(sigma->0) =      -31.76768410


--------------------------------------------------------------------------------------------------------




--------------------------------------- Iteration      1(  28)  ---------------------------------------


    POTLOK:  cpu time   14.8292: real time   14.8546
    SETDIJ:  cpu time    0.0486: real time    0.0486
     EDDAV:  cpu time   30.4955: real time   30.5475
       DOS:  cpu time    0.0002: real time    0.0002
    CHARGE:  cpu time    6.3835: real time    6.3929
    MIXING:  cpu time    0.9511: real time    0.9529
    --------------------------------------------
      LOOP:  cpu time   52.7081: real time   52.7967

 eigenvalue-minimisations  :   128
 total energy-change (2. order) :-0.6800738E-06  (-0.3024109E-08)
 number of electron      23.9999998 magnetization 
 augmentation part        3.9981718 magnetization 

 Broyden mixing:
  rms(total) = 0.66344E-05    rms(broyden)= 0.66344E-05
  rms(prec ) = 0.68177E-05
  weight for this iteration     100.00

 eigenvalues of (default mixing * dielectric matrix)
  average eigenvalue GAMMA=   2.2228
  9.4625  7.4002  5.2487  3.8371  2.6499  2.6155  2.4053  2.0255  2.0255  1.4431
  1.1718  1.0923  1.0923  0.7123  0.9734  0.9734  0.8285  0.8285  0.9103  0.9103
  0.9003  0.8209  0.7962

 Free energy of the ion-electron system (eV)
  ---------------------------------------------------
  alpha Z        PSCENC =         0.03994862
  Ewald energy   TEWEN  =      1392.20711239
  -Hartree energ DENC   =     -2628.67558608
  -exchange      EXHF   =         0.00000000
  -V(xc)+E(xc)   XCENC  =       105.10054730
  PAW double counting   =      7099.53166483    -7114.36507607
  entropy T*S    EENTRO =        -0.00000000
  eigenvalues    EBANDS =      -354.87395642
  atomic energy  EATOM  =      1469.26766065
  Solvation  Ediel_sol  =         0.00000000
  ---------------------------------------------------
  free energy    TOTEN  =       -31.76768478 eV

  energy without entropy =      -31.76768478  energy(sigma->0) =      -31.76768478


--------------------------------------------------------------------------------------------------------




--------------------------------------- Iteration      1(  29)  ---------------------------------------


    POTLOK:  cpu time   14.8739: real time   14.8984
    SETDIJ:  cpu time    0.0488: real time    0.0488
     EDDAV:  cpu time   18.2799: real time   18.3157
       DOS:  cpu time    0.0122: real time    0.0122
    CHARGE:  cpu time    6.3671: real time    6.3763
    MIXING:  cpu time    0.9975: real time    0.9994
    --------------------------------------------
      LOOP:  cpu time   40.5793: real time   40.6506

 eigenvalue-minimisations  :    64
 total energy-change (2. order) :-0.5366001E-06  (-0.2852229E-08)
 number of electron      23.9999998 magnetization 
 augmentation part        3.9981728 magnetization 

 Broyden mixing:
  rms(total) = 0.36414E-05    rms(broyden)= 0.36414E-05
  rms(prec ) = 0.37351E-05
  weight for this iteration     100.00

 eigenvalues of (default mixing * dielectric matrix)
  average eigenvalue GAMMA=   2.2462
  9.5394  7.5033  5.2995  3.6861  3.1271  3.1271  2.3445  2.3160  1.9313  1.6903
  1.3137  1.1200  1.1200  1.0442  1.0442  0.7123  0.8274  0.8274  0.9230  0.9230
  0.9186  0.9186  0.8444  0.8084

 Free energy of the ion-electron system (eV)
  ---------------------------------------------------
  alpha Z        PSCENC =         0.03994862
  Ewald energy   TEWEN  =      1392.20711239
  -Hartree energ DENC   =     -2628.67541618
  -exchange      EXHF   =         0.00000000
  -V(xc)+E(xc)   XCENC  =       105.10054003
  PAW double counting   =      7099.52815379    -7114.36156730
  entropy T*S    EENTRO =        -0.00000000
  eigenvalues    EBANDS =      -354.87411732
  atomic energy  EATOM  =      1469.26766065
  Solvation  Ediel_sol  =         0.00000000
  ---------------------------------------------------
  free energy    TOTEN  =       -31.76768532 eV

  energy without entropy =      -31.76768532  energy(sigma->0) =      -31.76768532


--------------------------------------------------------------------------------------------------------




--------------------------------------- Iteration      1(  30)  ---------------------------------------


    POTLOK:  cpu time   14.8728: real time   14.8981
    SETDIJ:  cpu time    0.0486: real time    0.0486
     EDDAV:  cpu time   30.5541: real time   30.6104
       DOS:  cpu time    0.0003: real time    0.0003
    CHARGE:  cpu time    6.3199: real time    6.3290
    MIXING:  cpu time    1.0476: real time    1.0496
    --------------------------------------------
      LOOP:  cpu time   52.8432: real time   52.9361

 eigenvalue-minimisations  :   128
 total energy-change (2. order) :-0.2344627E-06  (-0.2489365E-08)
 number of electron      23.9999998 magnetization 
 augmentation part        3.9981729 magnetization 

 Broyden mixing:
  rms(total) = 0.28025E-05    rms(broyden)= 0.28025E-05
  rms(prec ) = 0.28483E-05
  weight for this iteration     100.00

 eigenvalues of (default mixing * dielectric matrix)
  average eigenvalue GAMMA=   2.2535
  9.6109  7.7135  5.8294  4.2899  3.0359  2.7366  2.3946  2.3946  2.1837  1.7822
  1.3355  1.0991  1.0991  1.0779  1.0779  0.7123  0.8296  0.8296  0.9296  0.9296
  0.9566  0.9566  0.8364  0.8485  0.8485

 Free energy of the ion-electron system (eV)
  ---------------------------------------------------
  alpha Z        PSCENC =         0.03994862
  Ewald energy   TEWEN  =      1392.20711239
  -Hartree energ DENC   =     -2628.67539196
  -exchange      EXHF   =         0.00000000
  -V(xc)+E(xc)   XCENC  =       105.10053814
  PAW double counting   =      7099.52757980    -7114.36099119
  entropy T*S    EENTRO =        -0.00000000
  eigenvalues    EBANDS =      -354.87414200
  atomic energy  EATOM  =      1469.26766065
  Solvation  Ediel_sol  =         0.00000000
  ---------------------------------------------------
  free energy    TOTEN  =       -31.76768555 eV

  energy without entropy =      -31.76768555  energy(sigma->0) =      -31.76768555


--------------------------------------------------------------------------------------------------------




--------------------------------------- Iteration      1(  31)  ---------------------------------------


    POTLOK:  cpu time   14.8675: real time   14.8930
    SETDIJ:  cpu time    0.0486: real time    0.0486
     EDDAV:  cpu time   24.4381: real time   24.4803
       DOS:  cpu time    0.0030: real time    0.0030
    --------------------------------------------
      LOOP:  cpu time   39.3573: real time   39.4249

 eigenvalue-minimisations  :    96
 total energy-change (2. order) :-0.8511824E-07  (-0.2278192E-08)
 number of electron      23.9999998 magnetization 
 augmentation part        3.9981729 magnetization 

 Free energy of the ion-electron system (eV)
  ---------------------------------------------------
  alpha Z        PSCENC =         0.03994862
  Ewald energy   TEWEN  =      1392.20711239
  -Hartree energ DENC   =     -2628.67542764
  -exchange      EXHF   =         0.00000000
  -V(xc)+E(xc)   XCENC  =       105.10053896
  PAW double counting   =      7099.52857660    -7114.36198663
  entropy T*S    EENTRO =        -0.00000000
  eigenvalues    EBANDS =      -354.87410858
  atomic energy  EATOM  =      1469.26766065
  Solvation  Ediel_sol  =         0.00000000
  ---------------------------------------------------
  free energy    TOTEN  =       -31.76768564 eV

  energy without entropy =      -31.76768564  energy(sigma->0) =      -31.76768564


--------------------------------------------------------------------------------------------------------




 average (electrostatic) potential at core
  the test charge radii are     0.6256  0.8471  0.8742
  (the norm of the test charge is              1.0000)
       1 -41.3461       2 -41.2606       3 -87.9654       4 -92.2429       5 -92.1184
       6 -91.0044
 
 
 
 E-fermi :  -5.4142     XC(G=0):  -0.0365     alpha+bet : -0.0095


 k-point     1 :       0.0000    0.0000    0.0000
  band No.  band energies     occupation 
      1     -28.8184      2.00000
      2     -27.8104      2.00000
      3     -25.7422      2.00000
      4     -15.2608      2.00000
      5     -13.5252      2.00000
      6     -12.2925      2.00000
      7     -12.1168      2.00000
      8     -11.9659      2.00000
      9      -8.9163      2.00000
     10      -8.4463      2.00000
     11      -7.0482      2.00000
     12      -5.4942      2.00000
     13      -1.1075      0.00000
     14      -0.2300      0.00000
     15      -0.1028      0.00000
     16       0.0028      0.00000
     17       0.0758      0.00000
     18       0.0940      0.00000
     19       0.1191      0.00000
     20       0.1206      0.00000
     21       0.1229      0.00000
     22       0.1289      0.00000
     23       0.1459      0.00000
     24       0.1721      0.00000
     25       0.2195      0.00000
     26       0.2399      0.00000
     27       0.2408      0.00000
     28       0.2411      0.00000
     29       0.2411      0.00000
     30       0.2433      0.00000
     31       0.2436      0.00000
     32       0.2461      0.00000


--------------------------------------------------------------------------------------------------------


 soft charge-density along one line, spin component            1
         0         1         2         3         4         5         6         7         8         9
 total charge-density along one line
 
 pseudopotential strength for first ion, spin component:            1
 -2.339  -3.713   0.012  -0.020   0.001
 -3.713  -5.726   0.026  -0.041   0.001
  0.012   0.026  -0.119  -0.013   0.001
 -0.020  -0.041  -0.013  -0.106  -0.001
  0.001   0.001   0.001  -0.001  -0.129
 total augmentation occupancy for first ion, spin component:            1
  2.840  -0.521  -0.607   0.860  -0.032
 -0.521   0.218   0.094  -0.101   0.004
 -0.607   0.094   0.197  -0.170   0.005
  0.860  -0.101  -0.170   0.299  -0.008
 -0.032   0.004   0.005  -0.008   0.100


------------------------ aborting loop because EDIFF is reached ----------------------------------------



 DIPCOR: dipole corrections for dipol
 direction  1 min pos   403, direction  2 min pos   409, direction  3 min pos   382,
 dipolmoment          -0.013692     -0.429459      0.014701 electrons x Angstroem
 Tr[quadrupol]        11.632384

 energy correction for charged system         0.000000 eV
 dipol+quadrupol energy correction            0.000130 eV
 added-field ion interaction          0.000000 eV  (added to PSCEN)

 
  *************** adding dipol energy to TOTEN NOW **************** 
    CHARGE:  cpu time    6.3518: real time    6.3614
    FORLOC:  cpu time    0.6146: real time    0.6156
    FORNL :  cpu time    0.5528: real time    0.5538
    STRESS:  cpu time   19.7047: real time   19.7376
    FORHAR:  cpu time    3.6959: real time    3.7025
    MIXING:  cpu time    1.1097: real time    1.1116
    OFIELD:  cpu time    0.0001: real time    0.0001

  Hirshfeld charges:
            ion         q(e)     
   ------------------------------
      1     H           0.123
      2     H           0.118
      3     C           0.253
      4     O          -0.099
      5     O          -0.182
      6     O          -0.214

  Hirshfeld-I charges:
            ion         q(e)        dq(e)    
   ------------------------------------------
      1     H           0.385      0.155E-04
      2     H           0.374      0.155E-04
      3     C           0.732     -0.157E-04
      4     O          -0.256      0.185E-04
      5     O          -0.443      0.613E-05
      6     O          -0.793     -0.400E-04

   Hirshfeld-I converged in  24 cycles. Convergence criterion |dq|< 0.500E-04 e

  Atomic reference data used in the T-S method for vdW correction:
            C6at              R0at           ALPHAat      REFSTATE
            (au)              (au)            (au)                
   ---------------------------------------------------------------
   H           6.500          3.099          4.500         0
   C          46.600          3.590         12.000         0
   O          15.600          3.194          5.400         0

  Tkatchenko/Scheffler method for vdW energy calculation
  ---------------------------------------------------------------------------------------------

  Parameters of vdW forcefield:
            C6ts              R0ts           ALPHAts        RELVOL
            (au)              (au)            (au)                
   ---------------------------------------------------------------
   H           1.080          2.298          1.834          0.40757665
   H           1.120          2.312          1.868          0.41507541
   C          11.125          2.828          5.863          0.48861226
   O          15.823          3.201          5.438          1.00711170
   O          19.593          3.317          6.052          1.12068093
   O          27.843          3.517          7.214          1.33597196

  vdW correction parametrized for the method pbe       

  IVDW =  21
  VDW_RADIUS =    50.000 A
  VDW_IDAMPF =  0
  VDW_S6 =     1.000
  VDW_SR =     0.950
  VDW_D =    20.000
  LVDW_ONECELL = F F F
  LVDW_SAMETYPE T T T
  LVDW_EWALD = F

  Number of pair interactions contributing to vdW energy:     323
  Edisp (eV):   -0.00962
    FORVDW:  cpu time  139.6440: real time  139.7310

  FORCE on cell =-STRESS in cart. coord.  units (eV):
  Direction    XX          YY          ZZ          XY          YZ          ZX
  --------------------------------------------------------------------------------------
  Alpha Z     0.03995     0.03995     0.03995
  Ewald    -112.48265  1485.46369    19.22626     3.46685     0.68660    -1.53154
  Hartree   550.65445  1502.46806   575.55297     1.10107    -0.42171    -0.29055
  E(xc)    -111.81994  -108.59595  -111.33115     0.01150     0.00898    -0.00568
  Local    -947.31809 -3383.37621 -1063.60739    -3.71659     0.46852     1.35308
  n-local    79.71898    62.56874    74.67386    -0.14469    -0.09853     0.05916
  augment   137.07970   122.63384   129.65443    -0.16493    -0.13125     0.08693
  Kinetic   404.12696   357.61439   378.74629    -0.46585    -0.35811     0.29472
  Fock        0.00000     0.00000     0.00000     0.00000     0.00000     0.00000
  vdW        -0.00000    -0.00686     0.00081    -0.00001     0.00054    -0.00000
  -------------------------------------------------------------------------------------
  Total      -0.00064    38.80965     2.95603     0.08734     0.15505    -0.03387
  in kB      -0.00002     1.45026     0.11046     0.00326     0.00579    -0.00127
  external pressure =        0.52 kB  Pullay stress =        0.00 kB


 VOLUME and BASIS-vectors are now :
 -----------------------------------------------------------------------------
  energy-cutoff  :     1000.00
  volume of cell :    42875.00
      direct lattice vectors                 reciprocal lattice vectors
    35.000000000  0.000000000  0.000000000     0.028571429  0.000000000  0.000000000
     0.000000000 35.000000000  0.000000000     0.000000000  0.028571429  0.000000000
     0.000000000  0.000000000 35.000000000     0.000000000  0.000000000  0.028571429

  length of vectors
    35.000000000 35.000000000 35.000000000     0.028571429  0.028571429  0.028571429


 FORCES acting on ions
    electron-ion (+dipol)            ewald-force                    non-local-force                 convergence-correction
 -----------------------------------------------------------------------------------------------
   -.294E+01 -.719E+02 0.817E+02   0.324E+01 0.778E+02 -.900E+02   -.231E+00 -.408E+01 0.635E+01   0.139E-06 -.181E-06 -.137E-05
   -.126E+01 -.779E+02 -.759E+02   0.138E+01 0.847E+02 0.837E+02   -.101E+00 -.460E+01 -.594E+01   0.111E-06 -.112E-06 0.123E-05
   -.212E-02 0.567E+02 -.314E+00   -.614E-01 -.544E+02 0.132E+00   0.501E-01 -.527E+01 0.154E+00   0.155E-06 -.261E-05 -.238E-07
   0.239E+00 -.329E+02 -.610E+00   -.304E+00 0.114E+03 0.723E+00   0.442E-01 -.883E+02 -.172E+00   0.357E-06 -.514E-05 -.128E-07
   0.143E-01 0.304E+03 -.122E+00   -.386E-01 -.388E+03 0.763E-01   0.331E-01 0.798E+02 0.679E-01   0.168E-06 0.361E-05 0.640E-07
   0.205E+01 -.232E+03 -.170E+01   -.422E+01 0.166E+03 0.540E+01   0.210E+01 0.761E+02 -.352E+01   0.847E-06 -.306E-05 0.307E-06
 -----------------------------------------------------------------------------------------------
   -.190E+01 -.536E+02 0.305E+01   0.888E-15 0.284E-13 0.107E-13   0.190E+01 0.536E+02 -.305E+01   0.178E-05 -.750E-05 0.198E-06
 
 
 POSITION                                       TOTAL-FORCE (eV/Angst)
 -----------------------------------------------------------------------------------
      0.02970      3.41265     34.21499         0.065095      1.902098     -2.010337
      0.01365      3.48454      0.72944         0.023607      2.259562      1.893046
      0.00000      0.08826      0.00000        -0.013475     -2.990315     -0.028369
      0.00000      1.25848      0.00000        -0.021108     -7.179964     -0.058446
      0.00000     33.91804      0.00000         0.008785     -4.205919      0.022361
      0.00000      2.85848      0.00000        -0.062903     10.214538      0.181745
 -----------------------------------------------------------------------------------
    total drift:                                0.000001     -0.000324     -0.000039


--------------------------------------------------------------------------------------------------------



  FREE ENERGIE OF THE ION-ELECTRON SYSTEM (eV)
  ---------------------------------------------------
  free  energy   TOTEN  =       -31.77717064 eV

  energy  without entropy=      -31.77717064  energy(sigma->0) =      -31.77717064
 


--------------------------------------------------------------------------------------------------------


    POTLOK:  cpu time   16.4857: real time   16.5118


--------------------------------------------------------------------------------------------------------


 writing wavefunctions
     LOOP+:  cpu time 1994.4769: real time 1998.9218
    4ORBIT:  cpu time    0.0000: real time    0.0000

 total amount of memory used by VASP MPI-rank0  4216433. kBytes
=======================================================================

   base      :      30000. kBytes
   nonl-proj :     443298. kBytes
   fftplans  :     676185. kBytes
   grid      :    3042313. kBytes
   one-center:          9. kBytes
   wavefun   :      24628. kBytes
 
  
  
 General timing and accounting informations for this job:
 ========================================================
  
                  Total CPU time used (sec):     3435.219
                            User time (sec):     3221.432
                          System time (sec):      213.786
                         Elapsed time (sec):     3457.995
  
                   Maximum memory used (kb):     5615244.
                   Average memory used (kb):           0.
  
                          Minor page faults:     90792364
                          Major page faults:          943
                 Voluntary context switches:        17125
