
 Primary working directories    : /scratch/sirous/44649/molpro.HpKV3VEnjk
 Secondary working directories  : /scratch/sirous/44649/molpro.HpKV3VEnjk
 Wavefunction directory         : /scratch/sirous/44649/
 Main file repository           : /scratch/sirous/44649/molpro.HpKV3VEnjk/

 id        : karlovklimes

 Nodes                      nprocs
 nc-14.cc.karlov.mff.cuni.cz    4

 Using customized tuning parameters: mindgm=1; mindgv=20; mindgc=4; mindgr=1; noblas=0; minvec=7
 default implementation of scratch files=sf  


 Variables initialized (934), CPU time= 0.01 sec
 ***,CH3C6H4CN+CF3CN+BF3
 memory,500,m
 gdirect
 gthresh,energy=1.d-8,twoint=1.d-15,oneint=1.d-15,zero=1.d-15,orbital=1.d-8,grid=1.d-8
 symmetry,nosym
 geomtyp=xyz
                                                                                 ! Geometry
 geometry={
 O1        -0.786562022    0.045168441     -0.007189119
 H1        0.177706774    0.012695896     -0.006835389
 C1        -1.247990941    -1.290283536     0.001083621
 H2        -2.334277443    -1.2588971     0.0002212
 H3        -0.925965746    -1.849768096     -0.880445382
 H4        -0.927027831    -1.838462882     0.89007652
 O2        6.725375869093998    -0.20218145922108463     0.00019308956186023154
 H5        7.164580008093998    0.18597073977891537     -0.7596795924381398
 H6        7.163260163093998    0.20042281977891535     0.7532826215618602
 }
 
 
 
 basis=avdz
 
 
 
                                                                                 ! Dimer Calculation
 {rhf,accu=1.d-8;orbital,2101.2}
 eab_HF=energy
 
 
                                                                                 !monomer A
 dummy,7,8,9;                                                                    ! NOW MONOMER B IS DUMMY
 {rhf,accu=1.d-8;orbital,2201.2}
 ea_HF=energy
                                                                                 !monomer B
 dummy,1,2,3,4,5,6;                                                              !NOW MONOMER A IS DUMMY
 {rhf,accu=1.d-8;orbital,2301.2}
 eb_HF=energy
 
 E_AB_int=eab_HF-ea_HF-eb_HF
 
 
 text,results in hartree
 show,E_AB_int
 
 Commands  initialized (763), CPU time= 0.01 sec, 617 directives.
 Default parameters read. Elapsed time= 0.21 sec

 Checking input...
 Passed
1


                                         ***  PROGRAM SYSTEM MOLPRO  ***
                                       Copyright, TTI GmbH Stuttgart, 2015
                                    Version 2019.2 linked Jun  8 2019 11:26:33


 **********************************************************************************************************************************
 LABEL *   CH3C6H4CN+CF3CN+BF3                                                           
  64 bit mpp version                                                                     DATE: 13-Oct-19          TIME: 06:22:35  
 **********************************************************************************************************************************

 SHA1:             8135a10abc80eafa5b3ae28ffc55be4890dc4c84
 **********************************************************************************************************************************

 THRESHOLDS:

 ZERO    =  1.00D-15  ONEINT  =  1.00D-15  TWOINT  =  1.00D-15  PREFAC  =  1.00D-14  XXXXXX  =  1.00D-09  EORDER  =  1.00D-04
 ENERGY  =  1.00D-08  ETEST   =  0.00D+00  EDENS   =  0.00D+00  THRDEDEF=  1.00D-06  GRADIENT=  1.00D-02  STEP    =  1.00D-03
 ORBITAL =  1.00D-08  CIVEC   =  1.00D-05  COEFF   =  1.00D-04  PRINTCI =  5.00D-02  PUNCHCI =  9.90D+01  OPTGRAD =  3.00D-04
 OPTENERG=  1.00D-06  OPTSTEP =  3.00D-04  THRGRAD =  1.00D-10  COMPRESS=  1.00D-11  VARMIN  =  1.00D-07  VARMAX  =  1.00D-03
 THRDOUB =  0.00D+00  THRDIV  =  1.00D-05  THRRED  =  1.00D-07  THRPSP  =  1.00D+00  THRDC   =  1.00D-10  THRCS   =  1.00D-10
 THRNRM  =  1.00D-08  THREQ   =  0.00D+00  THRDE   =  1.00D+00  THRREF  =  1.00D-05  SPARFAC =  1.00D+00  THRDLP  =  1.00D-07
 THRDIA  =  1.00D-10  THRDLS  =  1.00D-07  THRGPS  =  0.00D+00  THRKEX  =  0.00D+00  THRDIS  =  2.00D-01  THRVAR  =  1.00D-10
 THRLOC  =  1.00D-06  THRGAP  =  1.00D-06  THRLOCT = -1.00D+00  THRGAPT = -1.00D+00  THRORB  =  1.00D-06  THRMLTP =  0.00D+00
 THRCPQCI=  1.00D-10  KEXTA   =  0.00D+00  THRCOARS=  0.00D+00  SYMTOL  =  1.00D-06  GRADTOL =  1.00D-06  THROVL  =  1.00D-08
 THRORTH =  1.00D-08  GRID    =  1.00D-08  GRIDMAX =  1.00D-03  DTMAX   =  0.00D+00  THROCCDE=  1.00D-01  THROCCDE=  1.00D-01
 THRPRINT=  2.50D-01


 Variable memory set to  500000000 words,  buffer space 

 SETTING GEOMTYP        =    XYZ
 ZSYMEL=NOSYM

 SETTING BASIS          =    AVDZ


 Recomputing integrals since basis changed


 Using spherical harmonics

 Library entry O      S aug-cc-pVDZ          selected for orbital group  1
 Library entry O      P aug-cc-pVDZ          selected for orbital group  1
 Library entry O      D aug-cc-pVDZ          selected for orbital group  1
 Library entry H      S aug-cc-pVDZ          selected for orbital group  2
 Library entry H      P aug-cc-pVDZ          selected for orbital group  2
 Library entry C      S aug-cc-pVDZ          selected for orbital group  3
 Library entry C      P aug-cc-pVDZ          selected for orbital group  3
 Library entry C      D aug-cc-pVDZ          selected for orbital group  3


 PROGRAM * SEWARD (Integral evaluation for generally contracted gaussian basis sets)     Author: Roland Lindh, 1990

 Geometry written to block  1 of record 700


 Point group  C1  



 ATOMIC COORDINATES

 NR  ATOM    CHARGE       X              Y              Z

   1  O1      8.00   -1.486386802    0.085355983   -0.013585466
   2  H1      1.00    0.335817133    0.023991766   -0.012917013
   3  C1      6.00   -2.358361084   -2.438282506    0.002047747
   4  H2      1.00   -4.411145066   -2.378970738    0.000418007
   5  H3      1.00   -1.749821661   -3.495555095   -1.663800640
   6  H4      1.00   -1.751828710   -3.474191337    1.682000853
   7  O2      8.00   12.709118477   -0.382067585    0.000364886
   8  H5      1.00   13.539094013    0.351433765   -1.435586372
   9  H6      1.00   13.536599867    0.378744238    1.423497849

 Bond lengths in Bohr (Angstrom)

 1-2  1.823237010  1-3  2.670081416  3-4  2.053641307  3-5  2.064750931  3-6  2.064759324
     ( 0.964815476)     ( 1.412946237)     ( 1.086740179)     ( 1.092619139)     ( 1.092623580)

 7-8  1.813515822  7-9  1.813523507
     ( 0.959671245)     ( 0.959675312)

 Bond angles

  1-3-4  107.40559298   1-3-5  112.51964705   1-3-6  112.52114043   2-1-3  107.13200477

  4-3-5  107.98411747   4-3-6  107.98497413   5-3-6  108.23763291   8-7-9  104.05491273

 NUCLEAR CHARGE:                   28
 NUMBER OF PRIMITIVE AOS:         177
 NUMBER OF SYMMETRY AOS:          171
 NUMBER OF CONTRACTIONS:          123   (  123A   )
 NUMBER OF CORE ORBITALS:           3   (    3A   )
 NUMBER OF VALENCE ORBITALS:       18   (   18A   )


 NUCLEAR REPULSION ENERGY   61.75561276


 Eigenvalues of metric

         1 0.641E-03 0.784E-03 0.808E-03 0.109E-02 0.231E-02 0.289E-02 0.297E-02 0.426E-02


 OPERATOR DM      FOR CENTER  0  COORDINATES:    0.000000    0.000000    0.000000


 **********************************************************************************************************************************
 DATASETS  * FILE   NREC   LENGTH (MB)   RECORD NAMES
              1      18       30.67       500      610      700      900      950      970     1000      129      960     1100   
                                          VAR    BASINP    GEOM    SYMINP    ZMAT    AOBASIS   BASIS     P2S    ABASIS      S 
                                         1400     1410     1200     1210     1080     1600     1650     1700   
                                           T        V       H0       H01     AOSYM     SMH    MOLCAS    OPER   

 PROGRAMS   *        TOTAL       INT
 CPU TIMES  *         0.51      0.33
 REAL TIME  *         1.79 SEC
 DISK USED  *        31.10 MB (local),      124.39 MB (total)
 GA USED    *         0.00 MB       (max)       0.00 MB       (current)
 **********************************************************************************************************************************


 PROGRAM * RHF-SCF (CLOSED SHELL)       Authors: W. Meyer, H.-J. Werner


 NUMBER OF ELECTRONS:      14+   14-    SPACE SYMMETRY=1    SPIN SYMMETRY: Singlet 
 CONVERGENCE THRESHOLDS:    1.00E-04 (Density)    1.00E-09 (Energy)
 INTEGRAL THRESHOLDS:       1.00E-11 (Initial)    1.00E-11 (Final)
 MAX. NUMBER OF ITERATIONS:       60
 INTERPOLATION TYPE:            DIIS
 INTERPOLATION STEPS:              2 (START)      1 (STEP)
 LEVEL SHIFTS:                  0.00 (CLOSED)  0.00 (OPEN) 



 Orbital guess generated from atomic densities. Full valence occupancy:   21

 Molecular orbital dump at record        2101.2

 Initial occupancy:  14

 Direct Fock-matrix evaluation.        Authors: Roland Lindh & Martin Schuetz (1993/96)

 Integral Threshold:                  0.1D-10
 Threshold for writing integrals:     0.1D-06
 Prescreening on density matrix:        ON 
 Calculation will be performed fully direct        

 ITERATION   DDIFF            GRAD            ENERGY        2-EL.EN.            DIPOLE MOMENTS         DIIS   CPU(IT)  CPU(TOT)
    1      0.000D+00      0.000D+00      -191.03194154    266.206986    1.52318    0.00642   -0.00174    0      2.9      4.9     start
    2      0.000D+00      0.705D-02      -191.08549168    260.356361    0.87632   -0.00546   -0.00098    1      1.6      6.5     diag
    3      0.117D-01      0.395D-02      -191.10216096    263.046275    1.01553   -0.04599   -0.00090    2      1.5      8.0     diag
    4      0.398D-02      0.584D-03      -191.10286279    262.748537    1.00699   -0.05104   -0.00086    3      1.6      9.6     diag
    5      0.913D-03      0.128D-03      -191.10290875    262.780825    1.00120   -0.05699   -0.00082    4      1.5     11.1     diag
    6      0.238D-03      0.263D-04      -191.10291081    262.778066    1.00102   -0.05698   -0.00082    5      1.5     12.6     diag
    7      0.509D-04      0.124D-04      -191.10291106    262.778686    1.00081   -0.05773   -0.00081    6      1.5     14.1     diag
    8      0.153D-04      0.246D-05      -191.10291109    262.778652    1.00062   -0.05778   -0.00081    7      1.5     15.6     diag
    9      0.547D-05      0.560D-06      -191.10291109    262.778604    1.00061   -0.05781   -0.00081    0      1.5     17.1     orth

 Final occupancy:  14

 !RHF STATE  1.1 Energy              -191.102911089677
 Nuclear energy                        61.75561276
 One-electron energy                 -384.24782574
 Two-electron energy                  131.38930189
 Virial quotient                       -1.00152367
 !RHF STATE  1.1 Dipole moment          1.00060545    -0.05780621    -0.00081374
 Dipole moment /Debye                   2.54311879    -0.14691910    -0.00206818

 Orbital energies:

         1.1          2.1          3.1          4.1          5.1          6.1          7.1          8.1          9.1         10.1
    -20.580415   -20.566963   -11.275242    -1.360813    -1.358254    -0.923856    -0.719601    -0.690373    -0.617362    -0.592821

        11.1         12.1         13.1         14.1         15.1         16.1
     -0.588760    -0.511959    -0.501238    -0.446956     0.030268     0.041059


 HOMO     14.1    -0.446956 =     -12.1623eV
 LUMO     15.1     0.030268 =       0.8236eV
 LUMO-HOMO         0.477224 =      12.9859eV


 **********************************************************************************************************************************
 DATASETS  * FILE   NREC   LENGTH (MB)   RECORD NAMES
              1      18       30.67       500      610      700      900      950      970     1000      129      960     1100   
                                          VAR    BASINP    GEOM    SYMINP    ZMAT    AOBASIS   BASIS     P2S    ABASIS      S 
                                         1400     1410     1200     1210     1080     1600     1650     1700   
                                           T        V       H0       H01     AOSYM     SMH    MOLCAS    OPER   

              2       4        3.20       700     1000      520     2101   
                                         GEOM     BASIS   MCVARS     RHF  

 PROGRAMS   *        TOTAL   RHF-SCF       INT
 CPU TIMES  *        17.65     17.14      0.33
 REAL TIME  *        20.39 SEC
 DISK USED  *        34.90 MB (local),      139.59 MB (total)
 SF USED    *         0.18 MB
 GA USED    *         0.00 MB       (max)       0.00 MB       (current)
 **********************************************************************************************************************************
 SETTING EAB_HF         =      -191.10291109  AU                              

 Dummy atoms: O2  H5  H6


 Recomputing one-electron integrals since nuclear charges changed


 PROGRAM * SEWARD (Integral evaluation for generally contracted gaussian basis sets)     Author: Roland Lindh, 1990

 Geometry written to block  1 of record 700


 Point group  C1  



 ATOMIC COORDINATES

 NR  ATOM    CHARGE       X              Y              Z

   1  O1      8.00   -1.486386802    0.085355983   -0.013585466
   2  H1      1.00    0.335817133    0.023991766   -0.012917013
   3  C1      6.00   -2.358361084   -2.438282506    0.002047747
   4  H2      1.00   -4.411145066   -2.378970738    0.000418007
   5  H3      1.00   -1.749821661   -3.495555095   -1.663800640
   6  H4      1.00   -1.751828710   -3.474191337    1.682000853
   7  O2      0.00   12.709118477   -0.382067585    0.000364886
   8  H5      0.00   13.539094013    0.351433765   -1.435586372
   9  H6      0.00   13.536599867    0.378744238    1.423497849

 Bond lengths in Bohr (Angstrom)

 1-2  1.823237010  1-3  2.670081416  3-4  2.053641307  3-5  2.064750931  3-6  2.064759324
     ( 0.964815476)     ( 1.412946237)     ( 1.086740179)     ( 1.092619139)     ( 1.092623580)

 7-8  1.813515822  7-9  1.813523507
     ( 0.959671245)     ( 0.959675312)

 Bond angles

  1-3-4  107.40559298   1-3-5  112.51964705   1-3-6  112.52114043   2-1-3  107.13200477

  4-3-5  107.98411747   4-3-6  107.98497413   5-3-6  108.23763291   8-7-9  104.05491273

 NUCLEAR CHARGE:                   18
 NUMBER OF PRIMITIVE AOS:         177
 NUMBER OF SYMMETRY AOS:          171
 NUMBER OF CONTRACTIONS:          123   (  123A   )
 NUMBER OF CORE ORBITALS:           2   (    2A   )
 NUMBER OF VALENCE ORBITALS:       12   (   12A   )

 MOLECULE CHANGED: INITIALIZING OCCUPATION AND DUMP RECORDS


 NUCLEAR REPULSION ENERGY   40.42326361


 Eigenvalues of metric

         1 0.641E-03 0.784E-03 0.808E-03 0.109E-02 0.231E-02 0.289E-02 0.297E-02 0.426E-02


 OPERATOR DM      FOR CENTER  0  COORDINATES:    0.000000    0.000000    0.000000


 **********************************************************************************************************************************
 DATASETS  * FILE   NREC   LENGTH (MB)   RECORD NAMES
              1      18       30.67       500      610      700      900      950      970     1000      129      960     1100   
                                          VAR    BASINP    GEOM    SYMINP    ZMAT    AOBASIS   BASIS     P2S    ABASIS      S 
                                         1400     1410     1200     1210     1080     1600     1650     1700   
                                           T        V       H0       H01     AOSYM     SMH    MOLCAS    OPER   

              2       4        3.20       700     1000      520     2101   
                                         GEOM     BASIS   MCVARS     RHF  

 PROGRAMS   *        TOTAL       INT   RHF-SCF       INT
 CPU TIMES  *        17.71      0.05     17.14      0.33
 REAL TIME  *        20.55 SEC
 DISK USED  *        34.90 MB (local),      139.59 MB (total)
 SF USED    *         0.18 MB
 GA USED    *         0.00 MB       (max)       0.00 MB       (current)
 **********************************************************************************************************************************


 PROGRAM * RHF-SCF (CLOSED SHELL)       Authors: W. Meyer, H.-J. Werner


 NUMBER OF ELECTRONS:       9+    9-    SPACE SYMMETRY=1    SPIN SYMMETRY: Singlet 
 CONVERGENCE THRESHOLDS:    1.00E-04 (Density)    1.00E-09 (Energy)
 INTEGRAL THRESHOLDS:       1.00E-11 (Initial)    1.00E-11 (Final)
 MAX. NUMBER OF ITERATIONS:       60
 INTERPOLATION TYPE:            DIIS
 INTERPOLATION STEPS:              2 (START)      1 (STEP)
 LEVEL SHIFTS:                  0.00 (CLOSED)  0.00 (OPEN) 



 Orbital guess generated from atomic densities. Full valence occupancy:   14

 Molecular orbital dump at record        2201.2

 Initial occupancy:   9

 Direct Fock-matrix evaluation.        Authors: Roland Lindh & Martin Schuetz (1993/96)

 Integral Threshold:                  0.1D-10
 Threshold for writing integrals:     0.1D-06
 Prescreening on density matrix:        ON 
 Calculation will be performed fully direct        

 ITERATION   DDIFF            GRAD            ENERGY        2-EL.EN.            DIPOLE MOMENTS         DIIS   CPU(IT)  CPU(TOT)
    1      0.000D+00      0.000D+00      -115.02693306    164.313200    0.67524   -0.75828    0.00482    0      2.9      5.5     start
    2      0.000D+00      0.570D-02      -115.05422333    161.971171    0.35484   -0.46241    0.00292    1      1.6      7.0     diag
    3      0.779D-02      0.295D-02      -115.06075063    163.134870    0.41357   -0.58768    0.00372    2      1.5      8.5     diag
    4      0.253D-02      0.631D-03      -115.06127763    162.941562    0.40863   -0.58217    0.00368    3      1.5     10.1     diag
    5      0.790D-03      0.120D-03      -115.06130616    162.958454    0.40307   -0.58619    0.00371    4      1.5     11.6     diag
    6      0.188D-03      0.214D-04      -115.06130742    162.956514    0.40290   -0.58732    0.00371    5      1.5     13.1     diag
    7      0.411D-04      0.426D-05      -115.06130748    162.956745    0.40265   -0.58749    0.00371    6      1.5     14.6     diag
    8      0.868D-05      0.102D-05      -115.06130748    162.956624    0.40263   -0.58750    0.00371    0      1.5     16.1     orth

 Final occupancy:   9

 !RHF STATE  1.1 Energy              -115.061307478051
 Nuclear energy                        40.42326361
 One-electron energy                 -236.96288331
 Two-electron energy                   81.47831222
 Virial quotient                       -1.00145254
 !RHF STATE  1.1 Dipole moment          0.40262880    -0.58750420     0.00371310
 Dipole moment /Debye                   1.02331330    -1.49318892     0.00943715

 Orbital energies:

         1.1          2.1          3.1          4.1          5.1          6.1          7.1          8.1          9.1         10.1
    -20.570150   -11.278190    -1.363971    -0.926845    -0.693503    -0.620396    -0.595808    -0.504230    -0.450037     0.026087

        11.1
      0.039306


 HOMO      9.1    -0.450037 =     -12.2461eV
 LUMO     10.1     0.026087 =       0.7099eV
 LUMO-HOMO         0.476124 =      12.9560eV


 **********************************************************************************************************************************
 DATASETS  * FILE   NREC   LENGTH (MB)   RECORD NAMES
              1      18       30.67       500      610      700      900      950      970     1000      129      960     1100   
                                          VAR    BASINP    GEOM    SYMINP    ZMAT    AOBASIS   BASIS     P2S    ABASIS      S 
                                         1400     1410     1200     1210     1080     1600     1650     1700   
                                           T        V       H0       H01     AOSYM     SMH    MOLCAS    OPER   

              2       5        6.30       700     1000      520     2101     2201   
                                         GEOM     BASIS   MCVARS     RHF      RHF  

 PROGRAMS   *        TOTAL   RHF-SCF       INT   RHF-SCF       INT
 CPU TIMES  *        33.80     16.08      0.05     17.14      0.33
 REAL TIME  *        36.88 SEC
 DISK USED  *        37.94 MB (local),      151.75 MB (total)
 SF USED    *         0.18 MB
 GA USED    *         0.00 MB       (max)       0.00 MB       (current)
 **********************************************************************************************************************************
 SETTING EA_HF          =      -115.06130748  AU                              

 Dummy atoms: O1  H1  C1  H2  H3  H4


 Recomputing one-electron integrals since nuclear charges changed


 PROGRAM * SEWARD (Integral evaluation for generally contracted gaussian basis sets)     Author: Roland Lindh, 1990

 Geometry written to block  1 of record 700


 Point group  C1  



 ATOMIC COORDINATES

 NR  ATOM    CHARGE       X              Y              Z

   1  O1      0.00   -1.486386802    0.085355983   -0.013585466
   2  H1      0.00    0.335817133    0.023991766   -0.012917013
   3  C1      0.00   -2.358361084   -2.438282506    0.002047747
   4  H2      0.00   -4.411145066   -2.378970738    0.000418007
   5  H3      0.00   -1.749821661   -3.495555095   -1.663800640
   6  H4      0.00   -1.751828710   -3.474191337    1.682000853
   7  O2      8.00   12.709118477   -0.382067585    0.000364886
   8  H5      1.00   13.539094013    0.351433765   -1.435586372
   9  H6      1.00   13.536599867    0.378744238    1.423497849

 Bond lengths in Bohr (Angstrom)

 1-2  1.823237010  1-3  2.670081416  3-4  2.053641307  3-5  2.064750931  3-6  2.064759324
     ( 0.964815476)     ( 1.412946237)     ( 1.086740179)     ( 1.092619139)     ( 1.092623580)

 7-8  1.813515822  7-9  1.813523507
     ( 0.959671245)     ( 0.959675312)

 Bond angles

  1-3-4  107.40559298   1-3-5  112.51964705   1-3-6  112.52114043   2-1-3  107.13200477

  4-3-5  107.98411747   4-3-6  107.98497413   5-3-6  108.23763291   8-7-9  104.05491273

 NUCLEAR CHARGE:                   10
 NUMBER OF PRIMITIVE AOS:         177
 NUMBER OF SYMMETRY AOS:          171
 NUMBER OF CONTRACTIONS:          123   (  123A   )
 NUMBER OF CORE ORBITALS:           1   (    1A   )
 NUMBER OF VALENCE ORBITALS:        6   (    6A   )

 MOLECULE CHANGED: INITIALIZING OCCUPATION AND DUMP RECORDS


 NUCLEAR REPULSION ENERGY    9.17236909


 Eigenvalues of metric

         1 0.641E-03 0.784E-03 0.808E-03 0.109E-02 0.231E-02 0.289E-02 0.297E-02 0.426E-02


 OPERATOR DM      FOR CENTER  0  COORDINATES:    0.000000    0.000000    0.000000


 **********************************************************************************************************************************
 DATASETS  * FILE   NREC   LENGTH (MB)   RECORD NAMES
              1      18       30.67       500      610      700      900      950      970     1000      129      960     1100   
                                          VAR    BASINP    GEOM    SYMINP    ZMAT    AOBASIS   BASIS     P2S    ABASIS      S 
                                         1400     1410     1200     1210     1080     1600     1650     1700   
                                           T        V       H0       H01     AOSYM     SMH    MOLCAS    OPER   

              2       5        6.30       700     1000      520     2101     2201   
                                         GEOM     BASIS   MCVARS     RHF      RHF  

 PROGRAMS   *        TOTAL       INT   RHF-SCF       INT   RHF-SCF       INT
 CPU TIMES  *        33.85      0.05     16.08      0.05     17.14      0.33
 REAL TIME  *        37.04 SEC
 DISK USED  *        37.94 MB (local),      151.75 MB (total)
 SF USED    *         0.18 MB
 GA USED    *         0.00 MB       (max)       0.00 MB       (current)
 **********************************************************************************************************************************


 PROGRAM * RHF-SCF (CLOSED SHELL)       Authors: W. Meyer, H.-J. Werner


 NUMBER OF ELECTRONS:       5+    5-    SPACE SYMMETRY=1    SPIN SYMMETRY: Singlet 
 CONVERGENCE THRESHOLDS:    1.00E-04 (Density)    1.00E-09 (Energy)
 INTEGRAL THRESHOLDS:       1.00E-11 (Initial)    1.00E-11 (Final)
 MAX. NUMBER OF ITERATIONS:       60
 INTERPOLATION TYPE:            DIIS
 INTERPOLATION STEPS:              2 (START)      1 (STEP)
 LEVEL SHIFTS:                  0.00 (CLOSED)  0.00 (OPEN) 



 Orbital guess generated from atomic densities. Full valence occupancy:    7

 Molecular orbital dump at record        2301.2

 Initial occupancy:   5

 Direct Fock-matrix evaluation.        Authors: Roland Lindh & Martin Schuetz (1993/96)

 Integral Threshold:                  0.1D-10
 Threshold for writing integrals:     0.1D-06
 Prescreening on density matrix:        ON 
 Calculation will be performed fully direct        

 ITERATION   DDIFF            GRAD            ENERGY        2-EL.EN.            DIPOLE MOMENTS         DIIS   CPU(IT)  CPU(TOT)
    1      0.000D+00      0.000D+00       -76.00430600     77.499412    0.84794    0.76470   -0.00656    0      2.8      5.4     start
    2      0.000D+00      0.851D-02       -76.03079681     74.008267    0.50632    0.45688   -0.00392    1      1.5      6.9     diag
    3      0.877D-02      0.504D-02       -76.04105641     75.538538    0.59084    0.53300   -0.00457    2      1.5      8.4     diag
    4      0.308D-02      0.506D-03       -76.04124085     75.428454    0.58718    0.52971   -0.00454    3      1.5      9.9     diag
    5      0.468D-03      0.127D-03       -76.04125618     75.442357    0.58668    0.52925   -0.00454    4      1.5     11.4     diag
    6      0.134D-03      0.218D-04       -76.04125691     75.442963    0.58670    0.52928   -0.00454    5      1.5     12.9     diag
    7      0.257D-04      0.397D-05       -76.04125694     75.442828    0.58663    0.52921   -0.00454    6      1.4     14.4     diag
    8      0.583D-05      0.693D-06       -76.04125694     75.442825    0.58662    0.52920   -0.00454    0      1.4     15.8     orth

 Final occupancy:   5

 !RHF STATE  1.1 Energy               -76.041256941151
 Nuclear energy                         9.17236909
 One-electron energy                 -122.93503875
 Two-electron energy                   37.72141273
 Virial quotient                       -1.00161982
 !RHF STATE  1.1 Dipole moment          0.58661686     0.52919795    -0.00454049
 Dipole moment /Debye                   1.49093368     1.34499893    -0.01154002

 Orbital energies:

         1.1          2.1          3.1          4.1          5.1          6.1          7.1
    -20.577883    -1.355711    -0.717062    -0.586082    -0.509369     0.028410     0.036371


 HOMO      5.1    -0.509369 =     -13.8606eV
 LUMO      6.1     0.028410 =       0.7731eV
 LUMO-HOMO         0.537780 =      14.6337eV


 **********************************************************************************************************************************
 DATASETS  * FILE   NREC   LENGTH (MB)   RECORD NAMES
              1      18       30.67       500      610      700      900      950      970     1000      129      960     1100   
                                          VAR    BASINP    GEOM    SYMINP    ZMAT    AOBASIS   BASIS     P2S    ABASIS      S 
                                         1400     1410     1200     1210     1080     1600     1650     1700   
                                           T        V       H0       H01     AOSYM     SMH    MOLCAS    OPER   

              2       6        9.40       700     1000      520     2101     2201     2301   
                                         GEOM     BASIS   MCVARS     RHF      RHF      RHF  

 PROGRAMS   *        TOTAL   RHF-SCF       INT   RHF-SCF       INT   RHF-SCF       INT
 CPU TIMES  *        49.63     15.78      0.05     16.08      0.05     17.14      0.33
 REAL TIME  *        53.03 SEC
 DISK USED  *        41.04 MB (local),      164.15 MB (total)
 SF USED    *         0.18 MB
 GA USED    *         0.00 MB       (max)       0.00 MB       (current)
 **********************************************************************************************************************************
 SETTING EB_HF          =       -76.04125694  AU                              
 SETTING E_AB_INT       =        -0.00034667  AU                              

 *** results in hartree
 E_AB_INT         =        -0.00034667 AU
 Molecular orbitals read from record     2301.2  Type=RHF/CANONICAL (state 1.1)
 Occupation numbers read from record     2301.2  Type=RHF/RHF (state 1.1)
 Orbital energies read from record       2301.2  Type=RHF/CANONICAL (state 1.1)
 Redundancy group numbers read from rec  2301.2  Type=RHF/RHF (state 1.1)

 RHF/aug-cc-pVDZ energy=    -76.041256941151

         RHF-SCF         RHF-SCF         RHF-SCF
    -76.04125694   -115.06130748   -191.10291109
 **********************************************************************************************************************************
 Molpro calculation terminated
