
 Primary working directories    : /scratch/sirous/44639/molpro.JMIFxjvXE4
 Secondary working directories  : /scratch/sirous/44639/molpro.JMIFxjvXE4
 Wavefunction directory         : /scratch/sirous/44639/
 Main file repository           : /scratch/sirous/44639/molpro.JMIFxjvXE4/

 id        : karlovklimes

 Nodes                      nprocs
 nc-12.cc.karlov.mff.cuni.cz    4

 Using customized tuning parameters: mindgm=1; mindgv=20; mindgc=4; mindgr=1; noblas=0; minvec=7
 default implementation of scratch files=sf  


 Variables initialized (934), CPU time= 0.00 sec
 ***,CH3C6H4CN+CF3CN+BF3
 memory,500,m
 gdirect
 gthresh,energy=1.d-8,twoint=1.d-15,oneint=1.d-15,zero=1.d-15,orbital=1.d-8,grid=1.d-8
 symmetry,nosym
 geomtyp=xyz
                                                                                 ! Geometry
 geometry={
 O1        -0.786562022    0.045168441     -0.007189119
 H1        0.177706774    0.012695896     -0.006835389
 C1        -1.247990941    -1.290283536     0.001083621
 H2        -2.334277443    -1.2588971     0.0002212
 H3        -0.925965746    -1.849768096     -0.880445382
 H4        -0.927027831    -1.838462882     0.89007652
 O2        4.741233719053129    -0.1370671095597435     -0.001936753291122478
 H5        5.18043785805313    0.25108508944025654     -0.7618094352911224
 H6        5.179118013053129    0.2655371694402565     0.7511527787088775
 }
 
 
 
 basis=avdz
 
 
 
                                                                                 ! Dimer Calculation
 {rhf,accu=1.d-8;orbital,2101.2}
 eab_HF=energy
 
 
                                                                                 !monomer A
 dummy,7,8,9;                                                                    ! NOW MONOMER B IS DUMMY
 {rhf,accu=1.d-8;orbital,2201.2}
 ea_HF=energy
                                                                                 !monomer B
 dummy,1,2,3,4,5,6;                                                              !NOW MONOMER A IS DUMMY
 {rhf,accu=1.d-8;orbital,2301.2}
 eb_HF=energy
 
 E_AB_int=eab_HF-ea_HF-eb_HF
 
 
 text,results in hartree
 show,E_AB_int
 
 Commands  initialized (763), CPU time= 0.02 sec, 617 directives.
 Default parameters read. Elapsed time= 0.20 sec

 Checking input...
 Passed
1


                                         ***  PROGRAM SYSTEM MOLPRO  ***
                                       Copyright, TTI GmbH Stuttgart, 2015
                                    Version 2019.2 linked Jun  8 2019 11:26:33


 **********************************************************************************************************************************
 LABEL *   CH3C6H4CN+CF3CN+BF3                                                           
  64 bit mpp version                                                                     DATE: 13-Oct-19          TIME: 06:21:34  
 **********************************************************************************************************************************

 SHA1:             8135a10abc80eafa5b3ae28ffc55be4890dc4c84
 **********************************************************************************************************************************

 THRESHOLDS:

 ZERO    =  1.00D-15  ONEINT  =  1.00D-15  TWOINT  =  1.00D-15  PREFAC  =  1.00D-14  XXXXXX  =  1.00D-09  EORDER  =  1.00D-04
 ENERGY  =  1.00D-08  ETEST   =  0.00D+00  EDENS   =  0.00D+00  THRDEDEF=  1.00D-06  GRADIENT=  1.00D-02  STEP    =  1.00D-03
 ORBITAL =  1.00D-08  CIVEC   =  1.00D-05  COEFF   =  1.00D-04  PRINTCI =  5.00D-02  PUNCHCI =  9.90D+01  OPTGRAD =  3.00D-04
 OPTENERG=  1.00D-06  OPTSTEP =  3.00D-04  THRGRAD =  1.00D-10  COMPRESS=  1.00D-11  VARMIN  =  1.00D-07  VARMAX  =  1.00D-03
 THRDOUB =  0.00D+00  THRDIV  =  1.00D-05  THRRED  =  1.00D-07  THRPSP  =  1.00D+00  THRDC   =  1.00D-10  THRCS   =  1.00D-10
 THRNRM  =  1.00D-08  THREQ   =  0.00D+00  THRDE   =  1.00D+00  THRREF  =  1.00D-05  SPARFAC =  1.00D+00  THRDLP  =  1.00D-07
 THRDIA  =  1.00D-10  THRDLS  =  1.00D-07  THRGPS  =  0.00D+00  THRKEX  =  0.00D+00  THRDIS  =  2.00D-01  THRVAR  =  1.00D-10
 THRLOC  =  1.00D-06  THRGAP  =  1.00D-06  THRLOCT = -1.00D+00  THRGAPT = -1.00D+00  THRORB  =  1.00D-06  THRMLTP =  0.00D+00
 THRCPQCI=  1.00D-10  KEXTA   =  0.00D+00  THRCOARS=  0.00D+00  SYMTOL  =  1.00D-06  GRADTOL =  1.00D-06  THROVL  =  1.00D-08
 THRORTH =  1.00D-08  GRID    =  1.00D-08  GRIDMAX =  1.00D-03  DTMAX   =  0.00D+00  THROCCDE=  1.00D-01  THROCCDE=  1.00D-01
 THRPRINT=  2.50D-01


 Variable memory set to  500000000 words,  buffer space 

 SETTING GEOMTYP        =    XYZ
 ZSYMEL=NOSYM

 SETTING BASIS          =    AVDZ


 Recomputing integrals since basis changed


 Using spherical harmonics

 Library entry O      S aug-cc-pVDZ          selected for orbital group  1
 Library entry O      P aug-cc-pVDZ          selected for orbital group  1
 Library entry O      D aug-cc-pVDZ          selected for orbital group  1
 Library entry H      S aug-cc-pVDZ          selected for orbital group  2
 Library entry H      P aug-cc-pVDZ          selected for orbital group  2
 Library entry C      S aug-cc-pVDZ          selected for orbital group  3
 Library entry C      P aug-cc-pVDZ          selected for orbital group  3
 Library entry C      D aug-cc-pVDZ          selected for orbital group  3


 PROGRAM * SEWARD (Integral evaluation for generally contracted gaussian basis sets)     Author: Roland Lindh, 1990

 Geometry written to block  1 of record 700


 Point group  C1  



 ATOMIC COORDINATES

 NR  ATOM    CHARGE       X              Y              Z

   1  O1      8.00   -1.486386802    0.085355983   -0.013585466
   2  H1      1.00    0.335817133    0.023991766   -0.012917013
   3  C1      6.00   -2.358361084   -2.438282506    0.002047747
   4  H2      1.00   -4.411145066   -2.378970738    0.000418007
   5  H3      1.00   -1.749821661   -3.495555095   -1.663800640
   6  H4      1.00   -1.751828710   -3.474191337    1.682000853
   7  O2      8.00    8.959633222   -0.259019298   -0.003659933
   8  H5      1.00    9.789608757    0.474482053   -1.439611192
   9  H6      1.00    9.787114611    0.501792526    1.419473029

 Bond lengths in Bohr (Angstrom)

 1-2  1.823237010  1-3  2.670081416  3-4  2.053641307  3-5  2.064750931  3-6  2.064759324
     ( 0.964815476)     ( 1.412946237)     ( 1.086740179)     ( 1.092619139)     ( 1.092623580)

 7-8  1.813515822  7-9  1.813523507
     ( 0.959671245)     ( 0.959675312)

 Bond angles

  1-3-4  107.40559298   1-3-5  112.51964705   1-3-6  112.52114043   2-1-3  107.13200477

  4-3-5  107.98411747   4-3-6  107.98497413   5-3-6  108.23763291   8-7-9  104.05491273

 NUCLEAR CHARGE:                   28
 NUMBER OF PRIMITIVE AOS:         177
 NUMBER OF SYMMETRY AOS:          171
 NUMBER OF CONTRACTIONS:          123   (  123A   )
 NUMBER OF CORE ORBITALS:           3   (    3A   )
 NUMBER OF VALENCE ORBITALS:       18   (   18A   )


 NUCLEAR REPULSION ENERGY   65.84652753


 Eigenvalues of metric

         1 0.628E-03 0.784E-03 0.808E-03 0.105E-02 0.217E-02 0.285E-02 0.296E-02 0.399E-02


 OPERATOR DM      FOR CENTER  0  COORDINATES:    0.000000    0.000000    0.000000


 **********************************************************************************************************************************
 DATASETS  * FILE   NREC   LENGTH (MB)   RECORD NAMES
              1      18       30.67       500      610      700      900      950      970     1000      129      960     1100   
                                          VAR    BASINP    GEOM    SYMINP    ZMAT    AOBASIS   BASIS     P2S    ABASIS      S 
                                         1400     1410     1200     1210     1080     1600     1650     1700   
                                           T        V       H0       H01     AOSYM     SMH    MOLCAS    OPER   

 PROGRAMS   *        TOTAL       INT
 CPU TIMES  *         0.43      0.26
 REAL TIME  *         1.68 SEC
 DISK USED  *        31.10 MB (local),      124.39 MB (total)
 GA USED    *         0.00 MB       (max)       0.00 MB       (current)
 **********************************************************************************************************************************


 PROGRAM * RHF-SCF (CLOSED SHELL)       Authors: W. Meyer, H.-J. Werner


 NUMBER OF ELECTRONS:      14+   14-    SPACE SYMMETRY=1    SPIN SYMMETRY: Singlet 
 CONVERGENCE THRESHOLDS:    1.00E-04 (Density)    1.00E-09 (Energy)
 INTEGRAL THRESHOLDS:       1.00E-11 (Initial)    1.00E-11 (Final)
 MAX. NUMBER OF ITERATIONS:       60
 INTERPOLATION TYPE:            DIIS
 INTERPOLATION STEPS:              2 (START)      1 (STEP)
 LEVEL SHIFTS:                  0.00 (CLOSED)  0.00 (OPEN) 



 Orbital guess generated from atomic densities. Full valence occupancy:   21

 Molecular orbital dump at record        2101.2

 Initial occupancy:  14

 Direct Fock-matrix evaluation.        Authors: Roland Lindh & Martin Schuetz (1993/96)

 Integral Threshold:                  0.1D-10
 Threshold for writing integrals:     0.1D-06
 Prescreening on density matrix:        ON 
 Calculation will be performed fully direct        

 ITERATION   DDIFF            GRAD            ENERGY        2-EL.EN.            DIPOLE MOMENTS         DIIS   CPU(IT)  CPU(TOT)
    1      0.000D+00      0.000D+00      -191.03316652    274.440505    1.52306    0.00678   -0.00174    0      3.0      5.1     start
    2      0.000D+00      0.702D-02      -191.08633528    268.584129    0.89926   -0.00283   -0.00097    1      1.7      6.8     diag
    3      0.117D-01      0.393D-02      -191.10281741    271.269789    1.03294   -0.04332   -0.00090    2      1.6      8.4     diag
    4      0.397D-02      0.582D-03      -191.10351609    270.972994    1.02453   -0.04814   -0.00086    3      1.7     10.1     diag
    5      0.913D-03      0.127D-03      -191.10356124    271.005050    1.01902   -0.05398   -0.00082    4      1.6     11.7     diag
    6      0.237D-03      0.260D-04      -191.10356324    271.002454    1.01883   -0.05395   -0.00082    5      1.6     13.3     diag
    7      0.502D-04      0.122D-04      -191.10356349    271.003050    1.01862   -0.05469   -0.00081    6      1.6     14.9     diag
    8      0.151D-04      0.241D-05      -191.10356351    271.003030    1.01843   -0.05474   -0.00081    7      1.6     16.4     diag
    9      0.536D-05      0.549D-06      -191.10356351    271.002979    1.01842   -0.05476   -0.00081    0      1.5     18.0     orth

 Final occupancy:  14

 !RHF STATE  1.1 Energy              -191.103563512056
 Nuclear energy                        65.84652753
 One-electron energy                 -392.45158074
 Two-electron energy                  135.50148970
 Virial quotient                       -1.00153327
 !RHF STATE  1.1 Dipole moment          1.01841655    -0.05475970    -0.00081300
 Dipole moment /Debye                   2.58838713    -0.13917617    -0.00206630

 Orbital energies:

         1.1          2.1          3.1          4.1          5.1          6.1          7.1          8.1          9.1         10.1
    -20.583012   -20.564056   -11.272880    -1.360856    -1.357964    -0.921385    -0.722177    -0.687610    -0.614829    -0.591612

        11.1         12.1         13.1         14.1         15.1         16.1
     -0.590267    -0.514646    -0.498709    -0.444298     0.030148     0.044253


 HOMO     14.1    -0.444298 =     -12.0900eV
 LUMO     15.1     0.030148 =       0.8204eV
 LUMO-HOMO         0.474446 =      12.9103eV


 **********************************************************************************************************************************
 DATASETS  * FILE   NREC   LENGTH (MB)   RECORD NAMES
              1      18       30.67       500      610      700      900      950      970     1000      129      960     1100   
                                          VAR    BASINP    GEOM    SYMINP    ZMAT    AOBASIS   BASIS     P2S    ABASIS      S 
                                         1400     1410     1200     1210     1080     1600     1650     1700   
                                           T        V       H0       H01     AOSYM     SMH    MOLCAS    OPER   

              2       4        3.20       700     1000      520     2101   
                                         GEOM     BASIS   MCVARS     RHF  

 PROGRAMS   *        TOTAL   RHF-SCF       INT
 CPU TIMES  *        18.42     17.98      0.26
 REAL TIME  *        21.20 SEC
 DISK USED  *        34.90 MB (local),      139.59 MB (total)
 SF USED    *         0.18 MB
 GA USED    *         0.00 MB       (max)       0.00 MB       (current)
 **********************************************************************************************************************************
 SETTING EAB_HF         =      -191.10356351  AU                              

 Dummy atoms: O2  H5  H6


 Recomputing one-electron integrals since nuclear charges changed


 PROGRAM * SEWARD (Integral evaluation for generally contracted gaussian basis sets)     Author: Roland Lindh, 1990

 Geometry written to block  1 of record 700


 Point group  C1  



 ATOMIC COORDINATES

 NR  ATOM    CHARGE       X              Y              Z

   1  O1      8.00   -1.486386802    0.085355983   -0.013585466
   2  H1      1.00    0.335817133    0.023991766   -0.012917013
   3  C1      6.00   -2.358361084   -2.438282506    0.002047747
   4  H2      1.00   -4.411145066   -2.378970738    0.000418007
   5  H3      1.00   -1.749821661   -3.495555095   -1.663800640
   6  H4      1.00   -1.751828710   -3.474191337    1.682000853
   7  O2      0.00    8.959633222   -0.259019298   -0.003659933
   8  H5      0.00    9.789608757    0.474482053   -1.439611192
   9  H6      0.00    9.787114611    0.501792526    1.419473029

 Bond lengths in Bohr (Angstrom)

 1-2  1.823237010  1-3  2.670081416  3-4  2.053641307  3-5  2.064750931  3-6  2.064759324
     ( 0.964815476)     ( 1.412946237)     ( 1.086740179)     ( 1.092619139)     ( 1.092623580)

 7-8  1.813515822  7-9  1.813523507
     ( 0.959671245)     ( 0.959675312)

 Bond angles

  1-3-4  107.40559298   1-3-5  112.51964705   1-3-6  112.52114043   2-1-3  107.13200477

  4-3-5  107.98411747   4-3-6  107.98497413   5-3-6  108.23763291   8-7-9  104.05491273

 NUCLEAR CHARGE:                   18
 NUMBER OF PRIMITIVE AOS:         177
 NUMBER OF SYMMETRY AOS:          171
 NUMBER OF CONTRACTIONS:          123   (  123A   )
 NUMBER OF CORE ORBITALS:           2   (    2A   )
 NUMBER OF VALENCE ORBITALS:       12   (   12A   )

 MOLECULE CHANGED: INITIALIZING OCCUPATION AND DUMP RECORDS


 NUCLEAR REPULSION ENERGY   40.42326361


 Eigenvalues of metric

         1 0.628E-03 0.784E-03 0.808E-03 0.105E-02 0.217E-02 0.285E-02 0.296E-02 0.399E-02


 OPERATOR DM      FOR CENTER  0  COORDINATES:    0.000000    0.000000    0.000000


 **********************************************************************************************************************************
 DATASETS  * FILE   NREC   LENGTH (MB)   RECORD NAMES
              1      18       30.67       500      610      700      900      950      970     1000      129      960     1100   
                                          VAR    BASINP    GEOM    SYMINP    ZMAT    AOBASIS   BASIS     P2S    ABASIS      S 
                                         1400     1410     1200     1210     1080     1600     1650     1700   
                                           T        V       H0       H01     AOSYM     SMH    MOLCAS    OPER   

              2       4        3.20       700     1000      520     2101   
                                         GEOM     BASIS   MCVARS     RHF  

 PROGRAMS   *        TOTAL       INT   RHF-SCF       INT
 CPU TIMES  *        18.48      0.05     17.98      0.26
 REAL TIME  *        21.36 SEC
 DISK USED  *        34.90 MB (local),      139.59 MB (total)
 SF USED    *         0.18 MB
 GA USED    *         0.00 MB       (max)       0.00 MB       (current)
 **********************************************************************************************************************************


 PROGRAM * RHF-SCF (CLOSED SHELL)       Authors: W. Meyer, H.-J. Werner


 NUMBER OF ELECTRONS:       9+    9-    SPACE SYMMETRY=1    SPIN SYMMETRY: Singlet 
 CONVERGENCE THRESHOLDS:    1.00E-04 (Density)    1.00E-09 (Energy)
 INTEGRAL THRESHOLDS:       1.00E-11 (Initial)    1.00E-11 (Final)
 MAX. NUMBER OF ITERATIONS:       60
 INTERPOLATION TYPE:            DIIS
 INTERPOLATION STEPS:              2 (START)      1 (STEP)
 LEVEL SHIFTS:                  0.00 (CLOSED)  0.00 (OPEN) 



 Orbital guess generated from atomic densities. Full valence occupancy:   14

 Molecular orbital dump at record        2201.2

 Initial occupancy:   9

 Direct Fock-matrix evaluation.        Authors: Roland Lindh & Martin Schuetz (1993/96)

 Integral Threshold:                  0.1D-10
 Threshold for writing integrals:     0.1D-06
 Prescreening on density matrix:        ON 
 Calculation will be performed fully direct        

 ITERATION   DDIFF            GRAD            ENERGY        2-EL.EN.            DIPOLE MOMENTS         DIIS   CPU(IT)  CPU(TOT)
    1      0.000D+00      0.000D+00      -115.02693784    164.313201    0.67524   -0.75838    0.00482    0      3.0      5.7     start
    2      0.000D+00      0.570D-02      -115.05422828    161.971247    0.35488   -0.46255    0.00292    1      1.6      7.3     diag
    3      0.779D-02      0.295D-02      -115.06075518    163.134869    0.41359   -0.58780    0.00372    2      1.6      9.0     diag
    4      0.253D-02      0.631D-03      -115.06128215    162.941589    0.40867   -0.58229    0.00368    3      1.6     10.6     diag
    5      0.791D-03      0.120D-03      -115.06131068    162.958475    0.40310   -0.58631    0.00371    4      1.6     12.2     diag
    6      0.189D-03      0.214D-04      -115.06131195    162.956536    0.40294   -0.58743    0.00371    5      1.6     13.8     diag
    7      0.412D-04      0.426D-05      -115.06131200    162.956765    0.40268   -0.58760    0.00371    6      1.6     15.4     diag
    8      0.869D-05      0.102D-05      -115.06131200    162.956645    0.40266   -0.58762    0.00371    0      1.6     17.0     orth

 Final occupancy:   9

 !RHF STATE  1.1 Energy              -115.061312001426
 Nuclear energy                        40.42326361
 One-electron energy                 -236.96289834
 Two-electron energy                   81.47832273
 Virial quotient                       -1.00145296
 !RHF STATE  1.1 Dipole moment          0.40266245    -0.58761775     0.00371369
 Dipole moment /Debye                   1.02339883    -1.49347753     0.00943864

 Orbital energies:

         1.1          2.1          3.1          4.1          5.1          6.1          7.1          8.1          9.1         10.1
    -20.570154   -11.278188    -1.363969    -0.926845    -0.693502    -0.620396    -0.595808    -0.504229    -0.450036     0.025167

        11.1
      0.042059


 HOMO      9.1    -0.450036 =     -12.2461eV
 LUMO     10.1     0.025167 =       0.6848eV
 LUMO-HOMO         0.475202 =      12.9309eV


 **********************************************************************************************************************************
 DATASETS  * FILE   NREC   LENGTH (MB)   RECORD NAMES
              1      18       30.67       500      610      700      900      950      970     1000      129      960     1100   
                                          VAR    BASINP    GEOM    SYMINP    ZMAT    AOBASIS   BASIS     P2S    ABASIS      S 
                                         1400     1410     1200     1210     1080     1600     1650     1700   
                                           T        V       H0       H01     AOSYM     SMH    MOLCAS    OPER   

              2       5        6.30       700     1000      520     2101     2201   
                                         GEOM     BASIS   MCVARS     RHF      RHF  

 PROGRAMS   *        TOTAL   RHF-SCF       INT   RHF-SCF       INT
 CPU TIMES  *        35.47     16.99      0.05     17.98      0.26
 REAL TIME  *        38.70 SEC
 DISK USED  *        37.94 MB (local),      151.75 MB (total)
 SF USED    *         0.18 MB
 GA USED    *         0.00 MB       (max)       0.00 MB       (current)
 **********************************************************************************************************************************
 SETTING EA_HF          =      -115.06131200  AU                              

 Dummy atoms: O1  H1  C1  H2  H3  H4


 Recomputing one-electron integrals since nuclear charges changed


 PROGRAM * SEWARD (Integral evaluation for generally contracted gaussian basis sets)     Author: Roland Lindh, 1990

 Geometry written to block  1 of record 700


 Point group  C1  



 ATOMIC COORDINATES

 NR  ATOM    CHARGE       X              Y              Z

   1  O1      0.00   -1.486386802    0.085355983   -0.013585466
   2  H1      0.00    0.335817133    0.023991766   -0.012917013
   3  C1      0.00   -2.358361084   -2.438282506    0.002047747
   4  H2      0.00   -4.411145066   -2.378970738    0.000418007
   5  H3      0.00   -1.749821661   -3.495555095   -1.663800640
   6  H4      0.00   -1.751828710   -3.474191337    1.682000853
   7  O2      8.00    8.959633222   -0.259019298   -0.003659933
   8  H5      1.00    9.789608757    0.474482053   -1.439611192
   9  H6      1.00    9.787114611    0.501792526    1.419473029

 Bond lengths in Bohr (Angstrom)

 1-2  1.823237010  1-3  2.670081416  3-4  2.053641307  3-5  2.064750931  3-6  2.064759324
     ( 0.964815476)     ( 1.412946237)     ( 1.086740179)     ( 1.092619139)     ( 1.092623580)

 7-8  1.813515822  7-9  1.813523507
     ( 0.959671245)     ( 0.959675312)

 Bond angles

  1-3-4  107.40559298   1-3-5  112.51964705   1-3-6  112.52114043   2-1-3  107.13200477

  4-3-5  107.98411747   4-3-6  107.98497413   5-3-6  108.23763291   8-7-9  104.05491273

 NUCLEAR CHARGE:                   10
 NUMBER OF PRIMITIVE AOS:         177
 NUMBER OF SYMMETRY AOS:          171
 NUMBER OF CONTRACTIONS:          123   (  123A   )
 NUMBER OF CORE ORBITALS:           1   (    1A   )
 NUMBER OF VALENCE ORBITALS:        6   (    6A   )

 MOLECULE CHANGED: INITIALIZING OCCUPATION AND DUMP RECORDS


 NUCLEAR REPULSION ENERGY    9.17236909


 Eigenvalues of metric

         1 0.628E-03 0.784E-03 0.808E-03 0.105E-02 0.217E-02 0.285E-02 0.296E-02 0.399E-02


 OPERATOR DM      FOR CENTER  0  COORDINATES:    0.000000    0.000000    0.000000


 **********************************************************************************************************************************
 DATASETS  * FILE   NREC   LENGTH (MB)   RECORD NAMES
              1      18       30.67       500      610      700      900      950      970     1000      129      960     1100   
                                          VAR    BASINP    GEOM    SYMINP    ZMAT    AOBASIS   BASIS     P2S    ABASIS      S 
                                         1400     1410     1200     1210     1080     1600     1650     1700   
                                           T        V       H0       H01     AOSYM     SMH    MOLCAS    OPER   

              2       5        6.30       700     1000      520     2101     2201   
                                         GEOM     BASIS   MCVARS     RHF      RHF  

 PROGRAMS   *        TOTAL       INT   RHF-SCF       INT   RHF-SCF       INT
 CPU TIMES  *        35.52      0.04     16.99      0.05     17.98      0.26
 REAL TIME  *        38.85 SEC
 DISK USED  *        37.94 MB (local),      151.75 MB (total)
 SF USED    *         0.18 MB
 GA USED    *         0.00 MB       (max)       0.00 MB       (current)
 **********************************************************************************************************************************


 PROGRAM * RHF-SCF (CLOSED SHELL)       Authors: W. Meyer, H.-J. Werner


 NUMBER OF ELECTRONS:       5+    5-    SPACE SYMMETRY=1    SPIN SYMMETRY: Singlet 
 CONVERGENCE THRESHOLDS:    1.00E-04 (Density)    1.00E-09 (Energy)
 INTEGRAL THRESHOLDS:       1.00E-11 (Initial)    1.00E-11 (Final)
 MAX. NUMBER OF ITERATIONS:       60
 INTERPOLATION TYPE:            DIIS
 INTERPOLATION STEPS:              2 (START)      1 (STEP)
 LEVEL SHIFTS:                  0.00 (CLOSED)  0.00 (OPEN) 



 Orbital guess generated from atomic densities. Full valence occupancy:    7

 Molecular orbital dump at record        2301.2

 Initial occupancy:   5

 Direct Fock-matrix evaluation.        Authors: Roland Lindh & Martin Schuetz (1993/96)

 Integral Threshold:                  0.1D-10
 Threshold for writing integrals:     0.1D-06
 Prescreening on density matrix:        ON 
 Calculation will be performed fully direct        

 ITERATION   DDIFF            GRAD            ENERGY        2-EL.EN.            DIPOLE MOMENTS         DIIS   CPU(IT)  CPU(TOT)
    1      0.000D+00      0.000D+00       -76.00432727     77.498856    0.84775    0.76516   -0.00656    0      3.0      5.6     start
    2      0.000D+00      0.851D-02       -76.03081611     74.008392    0.50588    0.45764   -0.00393    1      1.6      7.2     diag
    3      0.877D-02      0.504D-02       -76.04107201     75.538355    0.59049    0.53360   -0.00458    2      1.6      8.9     diag
    4      0.308D-02      0.506D-03       -76.04125648     75.428269    0.58680    0.53031   -0.00455    3      1.6     10.4     diag
    5      0.469D-03      0.127D-03       -76.04127182     75.442174    0.58630    0.52985   -0.00455    4      1.6     12.0     diag
    6      0.135D-03      0.218D-04       -76.04127254     75.442778    0.58632    0.52987   -0.00455    5      1.5     13.6     diag
    7      0.258D-04      0.396D-05       -76.04127257     75.442643    0.58625    0.52981   -0.00455    6      1.5     15.1     diag
    8      0.586D-05      0.693D-06       -76.04127257     75.442641    0.58624    0.52980   -0.00455    0      1.5     16.5     orth

 Final occupancy:   5

 !RHF STATE  1.1 Energy               -76.041272571746
 Nuclear energy                         9.17236909
 One-electron energy                 -122.93496196
 Two-electron energy                   37.72132030
 Virial quotient                       -1.00162080
 !RHF STATE  1.1 Dipole moment          0.58623766     0.52979540    -0.00454639
 Dipole moment /Debye                   1.48996990     1.34651739    -0.01155502

 Orbital energies:

         1.1          2.1          3.1          4.1          5.1          6.1          7.1
    -20.577899    -1.355722    -0.717072    -0.586092    -0.509375     0.029649     0.038400


 HOMO      5.1    -0.509375 =     -13.8608eV
 LUMO      6.1     0.029649 =       0.8068eV
 LUMO-HOMO         0.539024 =      14.6676eV


 **********************************************************************************************************************************
 DATASETS  * FILE   NREC   LENGTH (MB)   RECORD NAMES
              1      18       30.67       500      610      700      900      950      970     1000      129      960     1100   
                                          VAR    BASINP    GEOM    SYMINP    ZMAT    AOBASIS   BASIS     P2S    ABASIS      S 
                                         1400     1410     1200     1210     1080     1600     1650     1700   
                                           T        V       H0       H01     AOSYM     SMH    MOLCAS    OPER   

              2       6        9.40       700     1000      520     2101     2201     2301   
                                         GEOM     BASIS   MCVARS     RHF      RHF      RHF  

 PROGRAMS   *        TOTAL   RHF-SCF       INT   RHF-SCF       INT   RHF-SCF       INT
 CPU TIMES  *        52.09     16.58      0.04     16.99      0.05     17.98      0.26
 REAL TIME  *        55.71 SEC
 DISK USED  *        41.04 MB (local),      164.15 MB (total)
 SF USED    *         0.18 MB
 GA USED    *         0.00 MB       (max)       0.00 MB       (current)
 **********************************************************************************************************************************
 SETTING EB_HF          =       -76.04127257  AU                              
 SETTING E_AB_INT       =        -0.00097894  AU                              

 *** results in hartree
 E_AB_INT         =        -0.00097894 AU
 Molecular orbitals read from record     2301.2  Type=RHF/CANONICAL (state 1.1)
 Occupation numbers read from record     2301.2  Type=RHF/RHF (state 1.1)
 Orbital energies read from record       2301.2  Type=RHF/CANONICAL (state 1.1)
 Redundancy group numbers read from rec  2301.2  Type=RHF/RHF (state 1.1)

 RHF/aug-cc-pVDZ energy=    -76.041272571746

         RHF-SCF         RHF-SCF         RHF-SCF
    -76.04127257   -115.06131200   -191.10356351
 **********************************************************************************************************************************
 Molpro calculation terminated
